ITEM: TIMESTEP
2792
ITEM: NUMBER OF ATOMS
2565
ITEM: BOX BOUNDS pp pp pp
-1.5000000000000000e+01 1.5000000000000000e+01
-1.5000000000000000e+01 1.5000000000000000e+01
-1.5000000000000000e+01 1.5000000000000000e+01
ITEM: ATOMS id type x y z vx vy vz ix iy iz 
36 1 -8.33986 -11.2605 -7.99909 -0.0112647 -0.00318697 0.00252567 0 0 0 
187 2 -9.19316 -8.52093 -8.97642 -0.00158837 0.0041484 0.00551361 0 0 0 
188 1 -10.172 -8.55222 -8.99807 -0.000321144 0.0222178 -0.00530782 0 0 0 
189 1 -9.00581 -8.52808 -9.94102 0.00341512 -0.013048 0.00448164 0 0 0 
202 2 -9.17887 -11.6683 -14.1772 0.00180492 -0.000943206 -0.00329553 0 0 0 
203 1 -9.3042 -11.9633 -13.2512 0.0260149 0.0215321 -0.00467669 0 0 0 
204 1 -9.64595 -10.8046 -14.1694 0.0138605 -0.0273551 -0.0237305 0 0 0 
205 2 -13.4821 -10.8402 -8.13213 0.00609338 0.0018831 0.00363224 0 0 0 
207 1 -12.7705 -10.1817 -8.22036 0.00996606 0.019204 0.0183024 0 0 0 
208 2 -12.8765 -9.57118 -11.4763 0.00164211 -0.00138037 0.00476011 0 0 0 
209 1 -12.8703 -9.18208 -12.373 0.0263028 0.0130987 0.0154276 0 0 0 
210 1 -13.5579 -10.2612 -11.6007 -0.0140621 -0.0302681 0.00607208 0 0 0 
217 2 -11.9596 -8.61552 -9.10494 -0.00187783 -0.00126325 0.00611651 0 0 0 
218 1 -12.5713 -7.84439 -9.12045 -0.00227221 0.0165996 -0.00390443 0 0 0 
219 1 -12.1932 -9.00997 -9.9825 0.033435 0.0121052 0.00311472 0 0 0 
220 2 -9.02258 -8.45347 -11.7129 0.000874338 0.00549925 -0.0015888 0 0 0 
221 1 -8.1641 -8.37474 -12.1809 -0.00109802 0.0100929 0.0038859 0 0 0 
222 1 -9.57116 -8.82646 -12.4367 -0.0127355 -0.015856 -0.0232285 0 0 0 
226 2 -10.3272 -9.15701 -14.0114 -0.00119066 -0.00220741 0.00182197 0 0 0 
227 1 -11.3043 -9.05375 -14.0308 0.0235238 -0.00373379 -0.0106289 0 0 0 
228 1 -10.07 -8.49675 -14.6899 -0.00651355 -0.00145041 -0.0143615 0 0 0 
238 2 -8.91256 -12.6552 -8.88008 -0.00731007 -0.00314845 0.00216361 0 0 0 
239 1 -9.79576 -13.0026 -8.63212 0.00688597 -0.0115646 -0.0133343 0 0 0 
240 1 -8.33505 -13.4086 -8.63167 -0.00801509 0.029867 0.00207735 0 0 0 
352 2 -9.03436 -12.7355 -11.637 -0.00163921 0.00791229 0.000984192 0 0 0 
353 1 -9.16173 -12.5785 -10.679 -0.0103708 -0.00597227 0.0179365 0 0 0 
354 1 -8.06271 -12.605 -11.6791 -0.0109778 0.00113756 0.00983075 0 0 0 
364 2 -13.0211 -8.59559 -14.0771 0.00116844 -0.000427884 0.00425029 0 0 0 
366 1 -13.7089 -8.85617 -14.7205 0.0192255 0.00469663 -0.0146588 0 0 0 
538 2 -13.5368 -12.877 -9.95199 0.000949465 -0.0020841 0.00416242 0 0 0 
540 1 -13.4205 -12.1287 -9.32297 -0.00055035 0.00633212 0.0083143 0 0 0 
595 2 -11.3149 -13.8275 -8.38511 0.00139173 -0.00388249 0.00467352 0 0 0 
600 1 -13.1568 -14.3887 -10.8024 -0.0145785 -0.00415384 0.0214774 0 0 0 
613 2 -10.5386 -14.9015 -12.514 0.000643461 0.00239172 -0.00172267 0 0 0 
614 1 -10.2457 -14.9247 -13.4455 0.00935043 -0.00563948 0.0053182 0 0 0 
615 1 -10.0001 -14.1476 -12.1887 -0.0263932 -0.00915292 0.00355627 0 0 0 
596 1 -12.089 -13.7546 -8.97221 0.0374866 0.00672403 -0.0159104 0 0 0 
597 1 -10.9854 -14.7365 -8.55038 0.0217121 -0.017638 0.00962331 0 0 0 
539 1 -13.9224 -12.39 -10.7175 0.016327 -0.0135677 0.015101 0 0 0 
736 2 -14.8336 -11.4854 -11.905 0.00567479 -0.00450865 0.00230739 1 0 0 
836 1 -14.8033 -9.71406 -8.66234 -0.0423601 -0.0262093 0.0215812 1 0 0 
365 1 -13.1337 -7.61909 -14.0738 -0.0341463 0.00217991 -0.0231419 0 0 0 
34 2 -8.00445 -10.4858 -7.4979 0.00147028 -0.0036112 -0.00417614 0 0 0 
35 1 -8.29992 -9.75543 -8.08322 0.012392 0.0187548 0.00890657 0 0 0 
601 2 -7.16263 -14.6991 -8.25769 0.00239954 0.00443631 0.00138501 0 0 0 
37 2 -1.39559 -10.4071 -8.29613 -0.00539174 -0.00513262 3.86604e-05 0 0 0 
39 1 -0.622538 -9.97604 -8.71981 0.0153697 0.00205925 -0.00950446 0 0 0 
181 2 -6.50904 -10.853 -13.9256 0.00229282 -0.00102787 -0.00024408 0 0 0 
182 1 -6.44055 -11.3872 -13.1065 -0.00387781 0.00944308 -0.0115716 0 0 0 
183 1 -7.37889 -11.1553 -14.2587 0.00762303 -0.00962194 -0.010996 0 0 0 
190 2 -3.60314 -7.85229 -10.1566 0.00494942 0.000970381 0.00502881 0 0 0 
192 1 -2.87574 -7.99695 -10.7948 0.0114378 0.01182 -0.00128583 0 0 0 
197 1 -3.47339 -8.1897 -8.43574 -0.0200652 0.00872248 -0.0279288 0 0 0 
250 2 -3.2603 -10.5833 -12.0768 -0.00176666 3.71793e-05 -0.00135244 0 0 0 
251 1 -4.01362 -10.3562 -11.4916 -0.0130752 -0.0207601 0.00506315 0 0 0 
252 1 -2.78607 -9.72373 -12.1237 0.0221742 -0.0228164 0.00728198 0 0 0 
256 2 -1.85874 -8.26156 -12.2729 -0.00339539 0.00453908 -0.00134585 0 0 0 
257 1 -1.10934 -8.62647 -12.7892 -0.00744285 -0.0106022 0.0217966 0 0 0 
334 2 -2.52017 -12.2547 -10.0116 -0.00417614 -0.00392429 -0.00203827 0 0 0 
335 1 -2.66509 -11.7334 -10.8293 0.036704 -0.000334775 -0.0165442 0 0 0 
336 1 -2.19875 -11.5572 -9.39531 0.0265702 -0.0163603 -0.0145398 0 0 0 
340 2 -5.17435 -10.099 -10.161 0.00714892 0.005018 -0.00425061 0 0 0 
341 1 -4.81901 -9.19204 -10.0454 0.0324375 0.00483481 -0.0123709 0 0 0 
342 1 -5.23511 -10.3965 -9.22639 -0.0346814 -0.0104179 -0.0245603 0 0 0 
346 2 -4.88455 -13.4333 -9.35013 0.00230095 0.0107698 0.00308165 0 0 0 
347 1 -5.11639 -12.7092 -8.72255 -0.0265303 -0.0114871 0.00804385 0 0 0 
348 1 -4.01417 -13.0889 -9.65749 -0.00122572 -0.0209039 -0.0293137 0 0 0 
602 1 -6.37313 -14.4099 -8.75187 -0.00297843 -0.00733909 0.0232136 0 0 0 
607 2 -0.403031 -13.7828 -9.20181 -0.00453222 -0.00154672 0.00025704 0 0 0 
608 1 -1.18064 -13.3358 -9.59781 -0.00431175 -0.0182286 0.00709236 0 0 0 
609 1 -0.4421 -14.6638 -9.624 -0.0136796 -0.0224692 0.0167301 0 0 0 
616 2 -6.35878 -12.1659 -11.4828 0.00324355 0.00554863 -0.0034895 0 0 0 
617 1 -5.89308 -12.8298 -10.9444 0.00396696 -0.00640142 0.00374585 0 0 0 
618 1 -6.05668 -11.3454 -11.0318 0.0211616 -0.0160171 0.0121408 0 0 0 
1745 1 -3.58027 -10.826 -13.7959 -0.0197656 -0.0138941 -0.0182729 0 0 1 
415 2 -6.84669 -8.11085 -13.3803 0.00104567 -0.00330988 -0.000775223 0 0 0 
196 2 -3.3942 -8.62093 -7.55665 -0.00213157 -0.000453017 0.00350289 0 0 0 
198 1 -2.77699 -9.34678 -7.78698 -0.0013879 0.00168448 0.0226303 0 0 0 
214 2 -5.37937 -11.3177 -7.71125 -0.000371468 -0.00263284 -0.00038981 0 0 0 
416 1 -6.69865 -9.04339 -13.6398 0.0146238 -0.0104282 -0.0322294 0 0 0 
1010 1 -3.98812 -14.9599 -8.94832 0.00285192 -0.0157926 -0.00307483 0 1 0 
417 1 -6.05232 -7.69026 -13.7761 0.0039292 0.023174 -0.0182489 0 0 0 
1746 1 -4.83283 -10.8941 -14.6114 -0.0250812 0.00833751 0.00981542 0 0 1 
1744 2 -3.85968 -10.8464 -14.7368 -0.00598681 -0.000735307 -0.00122246 0 0 1 
132 1 2.40021 -14.1987 -14.4014 -0.00455679 -0.0141033 -0.0151302 0 0 0 
274 2 1.94767 -8.47303 -11.8762 -0.00191344 0.00218556 0.00885181 0 0 0 
275 1 1.26697 -8.78611 -12.5114 -0.0159063 0.0219639 -0.0098999 0 0 0 
490 2 0.173768 -9.42703 -13.7422 -0.00281202 -0.000671282 -0.00164221 0 0 0 
491 1 0.460179 -9.18837 -14.6527 -0.00883993 0.0158589 0.0102122 0 0 0 
492 1 0.0861576 -10.384 -13.8383 -0.00917281 -0.000741169 0.0114363 0 0 0 
494 1 0.705405 -7.70456 -8.71558 0.00758196 0.0219143 0.0105264 0 0 0 
508 2 0.931311 -9.40751 -9.40333 0.00204625 0.00320775 0.00819653 0 0 0 
509 1 1.36017 -10.2862 -9.31417 0.0108398 0.0196321 0.0174579 0 0 0 
510 1 1.30376 -9.09892 -10.2527 -0.0188338 0.0237727 -0.00301621 0 0 0 
523 2 1.77178 -12.0684 -9.19804 0.00232909 0.00240344 0.00194326 0 0 0 
524 1 2.12833 -12.4548 -8.37258 -0.0240043 0.0139473 0.0306423 0 0 0 
525 1 0.969743 -12.6291 -9.28217 -0.0125558 -0.035557 0.00438649 0 0 0 
535 2 3.01685 -12.5488 -14.797 0.00305346 0.00265757 -0.00659196 0 0 0 
537 1 3.13763 -11.9307 -14.0453 0.00129794 0.015671 -0.00502011 0 0 0 
593 1 2.55071 -14.5967 -7.7472 -0.0117565 0.0143599 0.0377051 0 0 0 
646 2 4.25665 -7.59511 -10.5061 0.000638804 0.00893076 0.00537338 0 0 0 
648 1 3.50578 -8.00913 -10.9632 0.00841551 0.0203533 0.0119451 0 0 0 
756 1 6.03157 -13.3823 -7.98239 -0.0383312 0.00943283 -0.00457429 0 0 0 
757 2 3.45756 -10.6986 -12.7607 -0.000133452 0.00907563 0.00437996 0 0 0 
758 1 4.06578 -10.1416 -13.3049 0.0151402 -0.0248218 -0.015114 0 0 0 
759 1 2.94016 -9.98539 -12.3431 -0.00456177 0.017883 0.0103967 0 0 0 
763 2 6.73895 -8.30767 -9.70721 0.0025198 -0.00886223 -0.00677411 0 0 0 
764 1 5.82122 -8.06491 -9.98221 0.0234754 -0.0254567 -0.00232131 0 0 0 
765 1 7.12415 -8.50335 -10.5846 0.00799145 -0.00463345 0.0319674 0 0 0 
853 2 4.71374 -8.88962 -14.3112 0.00514137 0.000609926 -0.00313278 0 0 0 
854 1 4.92633 -7.97049 -14.0488 0.0106778 -0.0184531 0.00418654 0 0 0 
943 2 3.81563 -12.7959 -11.0114 0.00209691 -0.000627712 -0.00303387 0 0 0 
944 1 3.21089 -12.461 -10.3173 -0.018655 0.0127814 0.00946954 0 0 0 
945 1 3.77652 -12.0492 -11.6485 -0.00488849 0.0226264 -0.0103375 0 0 0 
980 1 7.17491 -14.1058 -9.62571 0.00229176 -0.0114034 -0.000770967 0 0 0 
982 2 6.19299 -14.2877 -11.084 0.00839943 -0.00294537 0.00593827 0 0 0 
983 1 6.56592 -13.9657 -11.9335 0.0119901 -0.00300506 0.0115154 0 0 0 
984 1 5.36939 -13.7557 -11.0269 0.0179627 0.00355802 0.00957782 0 0 0 
1280 1 3.16306 -14.4014 -11.2833 0.00492774 0.00908522 0.000134385 0 1 0 
276 1 2.0329 -7.53902 -12.1828 -0.00529234 0.0158067 -0.00252943 0 0 0 
660 1 6.28862 -8.28284 -7.95199 -0.0314126 -0.0041444 -0.00889567 0 0 0 
674 1 9.81835 -0.409402 -1.54936 -0.0113836 -0.0280709 0.000303588 0 0 0 
738 1 -14.9956 -11.9711 -12.7494 0.00040123 -0.0127358 0.00918778 1 0 0 
2179 2 14.6592 -12.8619 -14.2061 0.00250344 -0.00208977 -0.00283052 0 0 1 
2040 1 9.8136 -12.3824 -14.7178 -0.0144009 0.0265878 0.0237655 0 0 1 
979 2 7.66741 -13.9835 -8.78209 -0.00591943 0.000422593 -0.00119008 0 0 0 
737 1 14.2736 -11.1392 -11.719 0.0154605 -0.0162782 0.0181961 0 0 0 
743 1 8.34775 -7.8317 -9.14286 -0.00206501 0.0018109 0.0101058 0 0 0 
751 2 9.02951 -11.2685 -13.6265 -0.00519434 0.00147603 0.00983246 0 0 0 
752 1 9.48233 -11.0458 -12.783 0.00846568 -0.0077604 0.0325874 0 0 0 
753 1 8.99304 -10.3853 -14.0448 0.0208136 -0.00758547 0.00737375 0 0 0 
766 2 8.36354 -8.42735 -11.9744 0.00228695 -0.00196692 0.000260355 0 0 0 
767 1 9.02778 -9.10081 -11.7055 0.00659064 -0.0334142 -0.0117925 0 0 0 
768 1 8.3771 -8.53365 -12.9443 0.000896536 0.0107229 0.00832201 0 0 0 
769 2 9.14473 -8.67836 -14.6882 0.00429431 -0.00119991 0.0064991 0 0 0 
771 1 10.0556 -8.39563 -14.4474 0.00730949 0.00539569 -0.00843283 0 0 0 
778 2 9.52401 -11.8856 -9.07848 -0.00439773 0.00287361 -0.00462983 0 0 0 
779 1 8.75912 -12.4926 -9.06984 0.0112647 0.00236651 0.0104475 0 0 0 
780 1 10.2092 -12.4958 -8.7116 0.0103446 0.0192861 -0.0339788 0 0 0 
835 2 14.5108 -9.04273 -8.85492 -0.000877119 0.00340141 -0.00198493 0 0 0 
837 1 13.979 -9.08425 -8.03128 0.00991076 0.00660058 -0.0128943 0 0 0 
841 2 13.7827 -12.5396 -8.92389 0.00353538 -0.00139186 -0.0015455 0 0 0 
842 1 13.9748 -12.3116 -7.98691 0.0101057 -0.0184725 0.0184415 0 0 0 
843 1 14.6422 -12.8845 -9.21961 0.0396846 -0.0278502 0.0135151 0 0 0 
847 2 10.1742 -10.3954 -11.2978 -0.0039032 0.00507777 0.00411312 0 0 0 
848 1 9.91269 -10.9461 -10.5269 0.0195765 0.0144105 -0.0108761 0 0 0 
849 1 11.1485 -10.3668 -11.1591 -0.000668607 -0.000617962 -0.0169719 0 0 0 
985 2 11.3663 -13.5085 -7.98417 -0.0068266 0.00665106 -0.00463264 0 0 0 
986 1 12.2172 -13.3027 -8.41826 0.00857728 0.0288718 -0.0104851 0 0 0 
991 2 7.49548 -13.5702 -13.4361 0.00262205 -0.00145575 -0.00372039 0 0 0 
992 1 7.42393 -13.6891 -14.4005 0.000930822 0.02525 -0.0226313 0 0 0 
993 1 7.96063 -12.7068 -13.3992 -0.00820316 -0.00259694 0.0248289 0 0 0 
994 2 12.8414 -10.5248 -10.5553 0.00275688 0.00412192 -0.00121397 0 0 0 
995 1 13.0565 -11.2944 -9.98588 -0.00117497 -0.0225317 0.0128588 0 0 0 
996 1 13.3557 -9.8251 -10.1038 0.00838322 0.0127414 0.00254334 0 0 0 
2180 1 13.9078 -13.4358 -14.4695 0.0161616 -0.00530763 -0.00161887 0 0 1 
892 2 11.6439 -7.56022 -14.1561 0.0036918 -0.000466402 0.00205599 0 0 0 
655 2 10.4419 -9.67769 -7.67695 0.000782991 -0.00774441 -0.0016448 0 0 0 
656 1 10.1929 -8.93409 -8.26582 -0.0251828 0.0177076 -0.0129804 0 0 0 
657 1 10.1461 -10.4497 -8.20544 0.00426233 0.0355744 -0.0197347 0 0 0 
981 1 8.05723 -14.879 -8.6746 0.0145935 -0.00385396 0.00937117 0 0 0 
2005 2 12.4764 -14.3936 -14.9936 -0.00586149 -0.00179388 -0.00649248 0 0 1 
1710 1 -9.37498 -13.2884 -14.9788 0.00196963 -0.00125704 0.00848077 0 0 1 
669 1 11.2938 -2.66799 -3.96477 0.000590462 -0.0136751 0.0113997 0 0 0 
16 2 -13.9412 -6.7133 -8.98605 0.00603862 0.001245 -0.00244224 0 0 0 
18 1 -14.6105 -7.42922 -8.97461 0.00477072 -0.000244194 0.011537 0 0 0 
17 1 -14.3357 -6.1108 -9.65192 -0.00461976 0.0144057 0.00285508 0 0 0 
67 2 -13.2478 -2.72712 -10.6312 0.00089863 -0.00500694 0.00102006 0 0 0 
68 1 -13.918 -2.22177 -11.1307 0.00132461 0.00721405 0.00685255 0 0 0 
69 1 -12.883 -2.01887 -10.0584 -0.00160566 -0.00149988 -0.0103595 0 0 0 
103 2 -8.84074 -4.55844 -8.80624 -0.00247169 0.000334914 -0.00151515 0 0 0 
104 1 -9.1417 -5.07489 -9.5855 0.0134329 0.00879433 -0.00854277 0 0 0 
105 1 -8.48226 -5.26668 -8.22915 -0.0353962 0.0128093 -0.00846921 0 0 0 
133 2 -9.63153 -5.84298 -11.0927 0.00172027 0.00471277 -0.000303135 0 0 0 
134 1 -10.5096 -5.54453 -11.414 0.0160402 -0.00254866 -0.00393833 0 0 0 
135 1 -9.66065 -6.81015 -11.2369 0.00765495 0.000851366 0.0103957 0 0 0 
286 2 -7.60639 -0.900448 -8.36942 0.0024812 -0.00721268 0.00613571 0 0 0 
288 1 -8.5314 -0.940798 -8.10055 -0.0154397 -0.0148488 -0.0257697 0 0 0 
289 2 -13.3711 -5.88698 -13.9813 -0.00329699 0.0072906 -0.00130621 0 0 0 
290 1 -12.8179 -5.45743 -13.2907 0.0173205 0.0290395 0.0149988 0 0 0 
291 1 -13.393 -5.1869 -14.6671 -0.0208105 -0.00400125 -0.00962015 0 0 0 
294 1 -7.98247 -3.40009 -9.87945 0.0102521 -0.0123941 0.00641769 0 0 0 
325 2 -8.23996 -1.35879 -12.7319 0.000185092 0.00303395 -0.00193376 0 0 0 
327 1 -8.12293 -0.430703 -12.4315 0.00215926 0.0203976 -0.00596727 0 0 0 
328 2 -11.8307 -4.54178 -12.1406 0.000886899 0.00318521 0.0127679 0 0 0 
329 1 -12.2852 -3.95932 -11.4936 -0.0280639 -0.0127586 0.0130204 0 0 0 
330 1 -11.3047 -3.87687 -12.6378 -0.00970825 0.0399374 -0.0466415 0 0 0 
361 2 -10.4581 -2.72169 -13.6376 -0.000929431 0.00881984 -0.00777327 0 0 0 
362 1 -9.67635 -2.19599 -13.3493 -0.00706943 -0.00566473 -0.0156463 0 0 0 
363 1 -10.0765 -3.22664 -14.3805 0.0228943 0.0111466 0.00120791 0 0 0 
395 1 -8.74528 -4.87928 -14.7622 0.00768538 0.00460167 -0.0135308 0 0 0 
409 2 -7.99893 -5.54953 -13.3127 0.00309697 -0.00948119 -0.00222927 0 0 0 
410 1 -8.52184 -5.59407 -12.4848 0.00399532 0.00697165 0.0103269 0 0 0 
411 1 -7.63407 -6.45773 -13.3589 0.0133654 -0.00222892 -0.000162491 0 0 0 
460 2 -12.602 -0.96931 -13.5615 0.00303452 0.000886095 -0.00164367 0 0 0 
461 1 -11.8728 -1.62738 -13.5439 -0.0272671 0.00386757 -0.00891344 0 0 0 
462 1 -13.2866 -1.38758 -13.011 -0.00777913 0.000893981 -0.0179025 0 0 0 
684 1 -14.3734 -4.26892 -10.7085 0.0199187 0.0011774 0.0233326 1 0 0 
326 1 -7.96453 -1.84161 -11.9248 -0.0398121 0.0270778 0.0263459 0 0 0 
687 1 14.982 -6.33043 -13.5589 0.0301169 -0.0418368 0.00632497 0 0 0 
21 1 -13.0682 -5.76876 -7.51599 -0.018017 0.00284267 -0.00996341 0 0 0 
45 1 -8.4934 -7.35953 -7.75137 -0.00293566 0.00227385 -0.0304465 0 0 0 
373 2 -12.6015 -0.215771 -9.41386 0.000721545 -0.00319417 -0.00608093 0 0 0 
260 1 -9.90003 -3.90523 -7.47022 -0.0144319 0.0232796 -0.00496379 0 0 0 
374 1 -13.1957 -0.0188287 -8.65037 -0.0132644 -0.0260926 0.0100922 0 0 0 
258 1 -1.79248 -7.31037 -12.5089 -0.0105649 -0.0316517 -0.0168033 0 0 0 
292 2 -7.49997 -2.73487 -10.4161 -0.00457177 -0.00614553 -0.00209125 0 0 0 
675 1 8.67774 -1.37514 -1.47433 0.00397926 0.00888401 0.0290842 0 0 0 
337 2 -5.27921 -0.384998 -11.6477 0.000751037 -0.000923443 -0.00195356 0 0 0 
293 1 -7.34504 -2.06543 -9.71562 -0.00409658 -0.00647295 -0.0327348 0 0 0 
1 2 -2.9458 -4.30239 -9.00348 0.00817043 -0.00321138 3.27721e-05 0 0 0 
2 1 -3.37633 -3.42127 -8.9568 -0.022427 -0.00874384 -0.039605 0 0 0 
3 1 -3.49014 -4.72217 -9.69446 -0.020178 -0.0110271 -0.00381762 0 0 0 
52 2 -4.29365 -1.94049 -9.39322 -0.00382934 0.00357163 0.00442026 0 0 0 
53 1 -4.89448 -1.83548 -10.1445 0.0154875 0.00291746 -0.00157549 0 0 0 
54 1 -4.02392 -1.01075 -9.26478 0.0131811 0.0111587 -0.0113384 0 0 0 
88 2 -3.99765 -5.43101 -11.3 -0.00219567 0.000119497 -0.00291657 0 0 0 
89 1 -4.71604 -4.90033 -11.7088 0.0114947 0.00205842 -0.0111585 0 0 0 
90 1 -3.27912 -5.33295 -11.9553 -0.0312066 0.00358145 0.0131738 0 0 0 
91 2 -4.70639 -6.95648 -14.6786 -0.000531707 -0.000945263 0.00204146 0 0 0 
92 1 -3.92225 -6.47824 -14.3811 0.00161 -0.022294 0.0290032 0 0 0 
97 2 -0.665463 -5.04296 -10.2691 -0.000206361 -0.00343666 0.00756243 0 0 0 
98 1 -1.42975 -4.80027 -9.69342 -0.0132409 0.00235625 0.00919462 0 0 0 
99 1 -0.178716 -5.64938 -9.67035 -0.0347436 0.00573386 -0.0105114 0 0 0 
118 2 -1.63518 -5.59302 -12.7791 0.00169351 0.00276114 -0.00151984 0 0 0 
119 1 -1.19254 -5.32946 -11.9403 0.0109029 0.0140927 -0.0210701 0 0 0 
120 1 -0.98419 -5.27624 -13.4424 -0.00595132 -0.00896387 -0.0251113 0 0 0 
191 1 -3.89209 -6.95736 -10.4467 -0.0110904 -0.00651637 0.00685466 0 0 0 
244 2 -5.97337 -3.90734 -12.3832 0.00493916 -0.0058887 -0.000409832 0 0 0 
245 1 -6.67623 -4.40781 -12.8468 -0.0287894 -0.00631263 0.00100371 0 0 0 
246 1 -6.49862 -3.46671 -11.6783 0.00552804 -0.00741722 0.0161611 0 0 0 
262 2 -4.00675 -2.20571 -13.217 -0.00234056 -0.00328967 0.00392008 0 0 0 
263 1 -4.39601 -1.45462 -12.7133 -0.0345681 -0.00118058 -0.0124413 0 0 0 
264 1 -4.6578 -2.89938 -12.9787 -0.00122979 0.0135847 0.0110838 0 0 0 
304 2 -1.34827 -1.47997 -13.2175 -0.00287269 0.00102929 -0.0054279 0 0 0 
305 1 -0.986702 -1.76499 -12.3527 0.0332386 0.00403682 -0.0093393 0 0 0 
306 1 -2.26861 -1.82241 -13.1791 0.0383916 -0.0286634 0.0180409 0 0 0 
317 1 -0.213435 -3.41874 -10.7493 -0.00194384 0.00897093 -0.00894993 0 0 0 
322 2 -6.63693 -0.206799 -14.7545 -0.0106798 0.00485282 0.000621116 0 0 0 
324 1 -7.14898 -0.737063 -14.1126 -0.00668148 0.0022818 0.0602438 0 0 0 
1649 1 0.0149277 -1.90345 -14.2235 -0.00310886 -0.00226656 0.0158561 0 0 1 
1650 1 1.41658 -1.4375 -14.1127 -0.0109049 0.0179187 -0.0272596 0 0 1 
1648 2 0.900672 -2.12034 -14.5999 0.00542768 0.00414667 -0.00640047 0 0 1 
82 2 0.442188 -0.597615 -9.08522 -0.00366043 0.0076915 -0.000980707 0 0 0 
83 1 0.202403 -1.36577 -9.64345 0.0155528 0.0111019 0.00885242 0 0 0 
84 1 0.407286 -0.988782 -8.17951 -0.0284627 -0.0154168 -0.0190132 0 0 0 
178 2 0.312352 -4.84789 -14.596 -0.00270474 0.00387601 0.00311045 0 0 0 
136 2 2.34606 -0.165522 -13.368 -0.00618562 -0.00278672 -0.000259164 0 0 0 
138 1 3.28446 -0.194686 -13.6048 -0.00895849 0.00335974 0.00274207 0 0 0 
180 1 0.578244 -3.90604 -14.6347 -0.00905023 -0.0132317 -0.0104307 0 0 0 
316 2 0.123597 -2.55262 -11.0618 -0.00634292 0.00188322 0.00551569 0 0 0 
318 1 1.04674 -2.80451 -11.2763 -0.00304501 -0.0174157 0.00637992 0 0 0 
475 2 2.6688 -3.60375 -11.3537 0.00321371 -0.0014818 0.00530102 0 0 0 
476 1 3.47429 -3.04525 -11.3261 0.00588621 -0.0113697 -0.0390861 0 0 0 
477 1 2.81349 -4.18088 -10.5687 -0.00187178 0.00434777 -0.0061842 0 0 0 
478 2 2.93393 -5.45159 -9.37369 -0.000832426 0.000742632 0.0010968 0 0 0 
479 1 2.09916 -5.83475 -9.02677 -0.0113909 -0.00442687 -0.0110212 0 0 0 
480 1 3.4923 -5.44854 -8.56413 -0.0153563 0.000363346 0.0031716 0 0 0 
487 2 2.22495 -5.90399 -12.8252 -0.000861338 0.0058982 -0.00403805 0 0 0 
488 1 1.61143 -5.62301 -13.5368 -0.0107035 -0.0335338 -0.0257189 0 0 0 
489 1 2.29593 -5.06698 -12.3175 -0.0116045 -0.0180631 -0.00164912 0 0 0 
493 2 0.657788 -6.74322 -8.53559 -0.00998327 0.00294599 0.00223099 0 0 0 
495 1 0.378495 -6.73086 -7.59444 0.00216561 0.00948843 0.00852684 0 0 0 
647 1 3.83879 -6.78259 -10.1564 0.00594678 0.0389642 -0.0200214 0 0 0 
676 2 4.99474 -2.06228 -11.3236 0.00389438 0.000979159 0.00317876 0 0 0 
677 1 5.14142 -1.61093 -12.1803 -0.0077499 -0.017063 -0.0164884 0 0 0 
678 1 5.08223 -1.29921 -10.7235 -0.0048051 0.00940242 -0.00773806 0 0 0 
805 2 4.95484 -6.22445 -13.5519 0.00512766 0.000962656 0.000306003 0 0 0 
806 1 5.52069 -5.6179 -13.0338 -0.0202501 0.0373418 0.0172154 0 0 0 
807 1 4.09061 -6.13149 -13.1041 0.000221458 0.00739936 0.00408451 0 0 0 
829 2 6.57892 -4.2241 -12.2511 0.00258214 -0.00091375 0.00614461 0 0 0 
830 1 6.01214 -3.60689 -11.7453 0.00769325 -0.00675267 0.0084443 0 0 0 
831 1 7.06758 -3.5829 -12.8097 0.0125548 0.0133741 -0.023423 0 0 0 
922 2 5.52078 -0.911423 -13.7547 -0.000283628 -0.00102299 -0.0030198 0 0 0 
923 1 6.40703 -1.31139 -13.8883 -0.00640013 -0.0229405 -0.0113684 0 0 0 
924 1 4.97801 -1.43585 -14.3849 -0.0116809 0.00607492 -0.0276847 0 0 0 
791 1 7.39995 -3.80972 -8.4813 -0.00988608 -0.00894092 -0.0129042 0 0 0 
790 2 6.75515 -3.96801 -7.76966 -0.00157536 -0.00376337 0.00182772 0 0 0 
742 2 9.27783 -7.54073 -9.01607 0.00625676 -0.0131093 0.00265459 0 0 0 
744 1 9.41928 -7.06952 -9.85312 0.0272248 0.000209513 0.00187057 0 0 0 
682 2 14.9481 -4.955 -10.8573 -0.000965512 -0.00424601 0.00493011 0 0 0 
683 1 14.1671 -4.40062 -11.0608 -0.0146559 -0.00615177 -0.0243309 0 0 0 
685 2 14.0423 -6.4055 -13.2877 0.00420098 0.00214338 0.000700823 0 0 0 
686 1 14.1277 -6.0808 -12.3744 -0.00457524 -0.00764184 0.00326114 0 0 0 
688 2 9.14579 -3.98475 -9.25042 0.0016667 0.00718742 -0.000568038 0 0 0 
689 1 9.0199 -4.6484 -9.95767 0.00848924 0.000814781 -0.000143911 0 0 0 
709 2 8.68142 -5.7965 -11.3222 0.0028898 -0.00235716 0.00266193 0 0 0 
710 1 7.89992 -5.28137 -11.63 0.0190939 0.00401886 0.0107942 0 0 0 
711 1 8.43129 -6.69692 -11.6264 -0.00326293 -0.0225191 -0.00947559 0 0 0 
784 2 12.817 -3.4276 -11.751 -0.00119416 -0.00944084 0.00130218 0 0 0 
785 1 12.2187 -4.01566 -12.2607 -0.0113086 -0.00461277 0.0152366 0 0 0 
786 1 12.1537 -2.95194 -11.2015 0.00881605 -0.00489043 -0.00679329 0 0 0 
793 2 14.8699 -1.71256 -12.3639 -0.00530423 0.00582689 0.00201543 0 0 0 
794 1 14.4673 -0.83467 -12.1698 0.00762207 -0.0125991 -0.00690987 0 0 0 
795 1 14.1135 -2.30488 -12.1478 -0.040858 -0.00424839 -0.0236734 0 0 0 
802 2 10.9124 -0.314582 -8.3319 0.00494786 -0.00469711 0.00182611 0 0 0 
804 1 10.0975 -0.444929 -7.80056 -0.0198575 -0.0111352 -0.00656697 0 0 0 
808 2 10.8452 -2.13826 -10.3725 0.0100904 0.00137174 -0.00541753 0 0 0 
809 1 10.9961 -1.49043 -9.64701 -0.012157 -0.0262809 -0.0194467 0 0 0 
810 1 10.1909 -2.73073 -9.9415 -0.0225954 -0.0115355 0.00101684 0 0 0 
823 2 12.319 -0.416417 -14.731 -0.00536262 0.00584423 0.00107661 0 0 0 
824 1 12.9128 -1.18479 -14.8529 0.0232559 0.0207289 0.0119898 0 0 0 
825 1 11.6768 -0.757825 -14.0735 0.00988487 -0.0129578 -0.0166039 0 0 0 
826 2 10.3567 -0.96326 -12.8066 0.00165021 -0.00097273 0.00382222 0 0 0 
827 1 10.5125 -1.43219 -11.9582 -0.0142296 -0.0213188 -0.0137561 0 0 0 
850 2 8.00849 -2.30076 -13.7271 0.000995952 -0.0022621 -0.00488178 0 0 0 
851 1 8.76141 -1.76455 -13.4019 0.00396099 0.00532563 -0.00836937 0 0 0 
852 1 8.46534 -2.83671 -14.4067 -0.0291643 -0.0119398 -0.00815374 0 0 0 
875 1 10.2825 -4.24588 -14.3368 0.0162032 0.0156404 0.00163018 0 0 0 
881 1 14.6372 -2.23189 -14.1724 -0.0261356 0.00949882 0.00325267 0 0 0 
886 2 10.9155 -5.12131 -12.9042 0.00319918 -0.00353682 0.00127978 0 0 0 
887 1 10.1807 -5.35907 -12.3043 0.0280891 -0.0168387 0.0117139 0 0 0 
888 1 11.138 -5.98812 -13.3011 -0.0131872 -0.0270282 -0.0307164 0 0 0 
894 1 12.5081 -7.32956 -13.7541 -0.0188316 0.00608512 0.0291237 0 0 0 
663 1 9.58577 -6.39082 -7.68602 -0.0280906 0.00394541 -0.0194344 0 0 0 
690 1 9.44279 -4.53601 -8.4981 0.00332597 0.000879948 -0.00867283 0 0 0 
828 1 10.4757 -0.0355364 -12.5076 -0.0183211 -0.00190805 -0.000427453 0 0 0 
40 2 -11.9548 -8.31094 -6.34878 -0.00113646 0.00144199 0.00308258 0 0 0 
41 1 -11.1045 -8.67662 -6.01236 -0.0227252 0.00506711 -0.0119905 0 0 0 
42 1 -11.8444 -8.4413 -7.30921 -0.0128658 -0.00503875 0.00122769 0 0 0 
49 2 -9.27408 -11.2491 -3.57985 0.000604242 -0.0041804 -0.00622141 0 0 0 
50 1 -9.5566 -10.6197 -4.27612 0.00111205 -0.000180044 0.011482 0 0 0 
51 1 -10.0593 -11.2508 -2.99168 0.0105474 -0.00730132 0.00555586 0 0 0 
61 2 -9.56373 -9.36413 -5.55035 -0.00453483 0.000995883 0.000684494 0 0 0 
62 1 -8.95616 -8.84045 -4.98894 0.0212995 -0.0232832 -0.000566293 0 0 0 
63 1 -8.93636 -9.76076 -6.19442 -0.00534997 0.0273394 0.00860852 0 0 0 
169 2 -8.36434 -13.589 -4.58413 -0.000530306 -0.00471754 -0.00148578 0 0 0 
170 1 -9.21253 -13.8169 -5.00901 -0.00699908 0.0153386 0.00858804 0 0 0 
171 1 -8.61651 -12.6954 -4.26109 0.00882251 0.0136538 0.00805501 0 0 0 
184 2 -8.21978 -8.11014 -3.48401 -0.00634808 0.00221089 0.000533918 0 0 0 
185 1 -8.90414 -8.24248 -2.79494 -0.0103676 0.0360786 -0.0204655 0 0 0 
199 2 -10.4434 -8.55284 -1.8968 -0.00461079 0.00339038 -0.00505071 0 0 0 
200 1 -10.5818 -8.3449 -0.950099 0.0125197 -0.00933688 -0.0062466 0 0 0 
201 1 -10.7882 -9.4709 -1.92006 -0.0154342 -0.0103845 -0.0255973 0 0 0 
206 1 -13.3657 -11.1487 -7.20434 -0.000749806 -0.0276778 0.00923932 0 0 0 
313 2 -11.3826 -11.1336 -1.83991 0.000116387 -0.00184237 -0.00259779 0 0 0 
314 1 -12.2408 -11.3127 -2.2929 -0.00844425 -0.0249297 0.0137215 0 0 0 
370 2 -10.9992 -13.6251 -5.68981 -0.00553988 -0.00639028 0.00227702 0 0 0 
371 1 -11.0759 -13.5366 -6.66323 0.000331645 0.016194 -0.00361607 0 0 0 
372 1 -11.1108 -14.5958 -5.61492 -0.0227432 -0.027621 -0.0110716 0 0 0 
426 1 -7.80485 -10.9815 -2.68531 -0.0280449 -0.00123349 -0.00164922 0 0 0 
526 2 -13.2171 -11.9333 -5.60117 -0.00261803 -0.00196504 0.00588407 0 0 0 
527 1 -12.426 -12.5086 -5.54472 -0.0274588 0.00461238 -0.0121159 0 0 0 
528 1 -13.3508 -11.73 -4.6502 -0.0030917 -0.0220086 0.0155277 0 0 0 
529 2 -13.5436 -8.17205 -4.0895 -0.00441111 -0.00285675 0.00838473 0 0 0 
530 1 -13.1237 -8.43048 -4.93663 0.0416153 -0.0110337 -0.0179415 0 0 0 
531 1 -12.8605 -7.54155 -3.78689 -0.0201057 -0.0268918 -0.0165361 0 0 0 
544 2 -13.7916 -11.6403 -2.94467 0.00206188 0.00108786 -0.0073964 0 0 0 
545 1 -14.4502 -12.3756 -2.90593 -0.00441113 -0.00754108 0.0236484 0 0 0 
546 1 -14.3314 -10.896 -2.59863 -0.0121405 -0.0055653 0.000386336 0 0 0 
838 2 -14.9231 -9.38047 -1.92549 -0.00482132 0.000868689 0.00469274 1 0 0 
839 1 -14.7534 -9.05851 -1.01647 0.0279765 -0.0150543 -0.0193194 1 0 0 
840 1 -14.3707 -8.79881 -2.48592 -0.0162246 -0.00799133 -0.0180701 1 0 0 
315 1 -11.4687 -11.7001 -1.06444 0.00492236 -0.0102876 0.00143986 0 0 0 
673 2 9.63382 -1.36165 -1.68989 0.00427315 8.43879e-05 -0.000120759 0 0 0 
603 1 -6.78404 -14.7766 -7.35563 -0.00688604 -0.00348415 0.018224 0 0 0 
38 1 -0.983697 -10.7064 -7.4559 -0.0141447 0.0171954 -0.00960457 0 0 0 
177 1 -1.15137 -9.36118 -0.177901 0.0295223 -0.0293294 -0.0164369 0 0 0 
78 1 -6.84775 -14.2556 -5.28573 0.0289572 0.0103553 -0.00520319 0 0 0 
422 1 -7.40897 -10.2966 -0.554626 0.00445607 -0.00057211 -0.0120713 0 0 0 
424 2 -6.97586 -10.9729 -2.1575 -0.0024345 0.0040135 0.00818697 0 0 0 
441 1 -7.26086 -13.7059 -3.16389 -0.00675114 -0.00969514 -0.00701337 0 0 0 
31 2 -2.43875 -7.9918 -5.09482 0.00540372 -0.00239114 -0.00538437 0 0 0 
32 1 -2.52111 -8.93068 -4.80887 0.00577171 0.00700383 0.0128722 0 0 0 
33 1 -2.85265 -8.07723 -5.98325 -0.00255033 -0.00102931 0.0127957 0 0 0 
58 2 -0.230021 -10.8959 -5.82047 0.00580321 0.00367307 0.000992693 0 0 0 
59 1 -1.03644 -10.8119 -5.26697 0.000822874 -0.0063047 0.047513 0 0 0 
76 2 -6.02277 -14.5687 -5.71534 0.00747238 -0.00147053 0.00167143 0 0 0 
172 2 -3.9295 -13.6336 -1.91682 0.00136577 -0.00611246 0.00527657 0 0 0 
174 1 -4.89044 -13.7465 -2.06156 -0.0162178 0.00298376 0.0441355 0 0 0 
215 1 -6.23137 -10.9578 -7.37908 -0.0151311 0.00182279 -0.0110625 0 0 0 
216 1 -4.91946 -11.5674 -6.88423 -0.000120987 0.00610116 0.00461495 0 0 0 
223 2 -2.61851 -10.6491 -4.47 0.000557865 0.00348682 0.00108322 0 0 0 
224 1 -2.88016 -10.7711 -3.53161 -0.0190834 -0.010039 0.0135048 0 0 0 
225 1 -3.15545 -11.3525 -4.89765 0.0223298 -0.0013348 0.000107066 0 0 0 
235 2 -5.90231 -8.11521 -6.42377 -0.00113067 0.000958402 -0.00194739 0 0 0 
236 1 -5.04592 -8.31789 -6.84582 0.000644203 0.00403787 0.00690314 0 0 0 
237 1 -5.78011 -8.51724 -5.54085 -0.00952327 0.00981163 -4.72998e-05 0 0 0 
241 2 -5.72465 -9.0647 -3.81425 0.00374663 -0.00652577 -0.00254202 0 0 0 
242 1 -6.59397 -8.6276 -3.66473 0.00274478 -0.00915314 0.0136787 0 0 0 
243 1 -5.19867 -8.70598 -3.06897 0.00414863 0.00431424 0.00657917 0 0 0 
331 2 -3.19717 -11.0103 -1.7904 -0.00497187 0.00215069 0.00328825 0 0 0 
332 1 -2.40575 -11.0124 -1.21615 -0.0132442 -0.00444551 0.0259141 0 0 0 
333 1 -3.46388 -11.9596 -1.76178 -0.00585427 0.0142328 0.0253938 0 0 0 
343 2 -4.27255 -8.48823 -1.55593 -0.00289582 0.00118106 0.00190776 0 0 0 
344 1 -4.36777 -8.2685 -0.604941 -0.0119347 0.015202 -0.0105735 0 0 0 
345 1 -3.96376 -9.42097 -1.52564 0.0163369 0.0019142 -0.0245939 0 0 0 
425 1 -6.3908 -10.4599 -2.74942 -0.0297918 -0.0032803 0.0163315 0 0 0 
439 2 -6.66979 -13.718 -2.38389 -0.00279271 0.00299607 -0.000853682 0 0 0 
440 1 -6.72641 -12.7788 -2.10748 0.0230059 0.0100992 -0.0164114 0 0 0 
586 2 -3.91584 -12.7363 -5.77842 0.00596143 0.001091 0.00063229 0 0 0 
587 1 -4.6353 -13.3964 -5.68843 -0.0182069 -0.0390647 0.00718714 0 0 0 
588 1 -3.17408 -13.3119 -6.05699 0.0070501 0.0140165 0.00925104 0 0 0 
604 2 -1.94201 -14.465 -6.84353 -0.00295734 -0.00134426 0.00365624 0 0 0 
605 1 -1.26371 -14.1043 -7.4448 -0.00629801 -0.0185193 -0.00221174 0 0 0 
173 1 -3.58587 -14.4996 -2.15655 -0.0257212 -0.0231481 -0.00627541 0 0 0 
100 2 -0.778139 -7.52284 -0.393856 -0.00142967 -0.00671798 0.00203785 0 0 0 
356 1 0.618315 -10.9427 -0.340188 -0.00484787 -0.00558091 -0.0139131 0 0 0 
592 2 2.62466 -13.7868 -7.20339 0.0095331 0.00279088 0.00181257 0 0 0 
591 1 0.710162 -12.3771 -5.27766 -0.00913979 0.0169525 0.0159804 0 0 0 
28 2 4.6487 -10.9331 -3.90225 0.00378743 -0.00398099 0.00213008 0 0 0 
29 1 4.40538 -10.0341 -4.21387 0.0142833 -0.000140097 0.00031095 0 0 0 
30 1 5.29345 -11.1716 -4.60171 -0.0283757 -0.00390365 -0.00476321 0 0 0 
46 2 4.12864 -8.55444 -1.58526 0.00276053 -0.00468922 -0.000329155 0 0 0 
47 1 3.20634 -8.57177 -1.89911 0.00913413 0.0131041 0.0242258 0 0 0 
48 1 4.0081 -8.19095 -0.690237 0.001907 0.0233263 -0.00528711 0 0 0 
60 1 0.331743 -10.1772 -5.45574 0.0215098 -0.0256476 -0.00286244 0 0 0 
73 2 2.50331 -12.0465 -2.6224 0.00663903 0.00180759 0.00203263 0 0 0 
74 1 2.01035 -12.3612 -3.41085 -0.0173392 -0.00474709 0.0248832 0 0 0 