LAMMPS (20 Nov 2019)
# Compute elastic constant tensor for a crystal at finite temperature
#
# WARNING: This script attempts to measure small differences in
# statistical averages generated by finite temperature MD simulations.
# This creates many more opportunities for errors to occur, compared
# to the zero temperature version provided in examples/ELASTIC.
# Hence, it is always a good idea to start with the zero temperature
# calculation, before attempting to use this script.
#
# Written by Aidan Thompson (Sandia, athomps@sandia.gov)
#
#  This script uses the following three include files.
#
#   init.mod      (must be modified for different crystal structures)
# 	       	  Define units, MD parameters, deformation parameters,
#		  and initial configuration of the atoms and simulation cell.
#
#
#   potential.mod    (must be modified for different pair styles)
# 		     Define pair style and other attributes
#		     not stored in restart file
#
#
#   displace.mod    (displace.mod should not need to be modified)
# 		    Perform positive and negative box displacements
# 		    in direction ${dir} and size ${up}.
# 		    It uses the resultant changes
#		    in stress to compute one
# 		    row of the elastic stiffness tensor
#
#		    Inputs variables:
#		    	   dir = the Voigt deformation component
#		    		    (1,2,3,4,5,6)
#		    Global constants:
#       	    	   up = the deformation magnitude (strain units)
#       		   cfac = conversion from LAMMPS pressure units to
#               	   output units for elastic constants
#
#
#  To run this on a different system, it should only be necessary to
#  modify the files init.mod and potential.mod. In order to calculate
#  the elastic constants correctly, care must be taken to specify
#  the correct units in init.mod (units, cfac and cunits). It is also
#  important to verify that the MD sampling of stress components
#  is generating accurate statistical averages.
#  One indication of this is that the elastic constants are insensitive
#  to the choice of the variable ${up} in init.mod. Another is to
#  check for finite size effects.
#

include init.mod
# NOTE: This script can be modified for different atomic structures,
# units, etc. See in.elastic for more info.
#

# Define the finite deformation size. Try several values of this
# variable to verify that results do not depend on it.
variable up equal 5.0e-2

# metal units, elastic constants in GPa
##### units		metal

## metal to real conversion !
## 1 bar ~ 1 atm
## 1 eV  = 23.061 kcal/mol

variable cfac equal 1.0e-4

variable cunits string GPa

# Define MD parameters
variable nevery equal 20                  # sampling interval
variable nrepeat equal 10                 # number of samples
variable nfreq equal ${nevery}*${nrepeat} # length of one average
variable nfreq equal 20*${nrepeat} 
variable nfreq equal 20*10 
variable nthermo equal ${nfreq}           # interval for thermo output
variable nthermo equal 200           
variable nequil equal 20*${nthermo}       # length of equilibration run
variable nequil equal 20*200       
variable nrun equal 10*${nthermo}          # length of equilibrated run
variable nrun equal 10*200          
variable timestep equal 1.0	           # timestep



units           real
boundary        p p p

newton          off
pair_style      lj/charmmfsw/coul/long 10 12
Switching to CHARMM coulomb energy conversion constant (src/KSPACE/pair_lj_charmmfsw_coul_long.cpp:67)
pair_modify     mix arithmetic
kspace_style    pppm 1e-6

atom_style      full
bond_style      harmonic
angle_style     charmm
dihedral_style  charmmfsw
special_bonds   charmm
improper_style  harmonic

read_data       sys_after_npt.data
  orthogonal box = (-14.713 -14.713 -14.713) to (14.713 14.713 14.713)
  1 by 2 by 2 MPI processor grid
  reading atoms ...
  2565 atoms
  reading velocities ...
  2565 velocities
  scanning bonds ...
  2 = max bonds/atom
  scanning angles ...
  1 = max angles/atom
  reading bonds ...
  1710 bonds
  reading angles ...
  855 angles
  2 = max # of 1-2 neighbors
  1 = max # of 1-3 neighbors
  1 = max # of 1-4 neighbors
  2 = max # of special neighbors
  special bonds CPU = 0.000337842 secs
  read_data CPU = 0.0112686 secs
change_box	all triclinic
  triclinic box = (-14.713 -14.713 -14.713) to (14.713 14.713 14.713) with tilt (0 0 0)



# Compute initial state

include potential.mod
# NOTE: This script can be modified for different pair styles
# See in.elastic for more info.

reset_timestep 0


# Setup neighbor style
neighbor 1.0 nsq
neigh_modify once no every 1 delay 0 check yes

# Setup output

fix avp all ave/time  ${nevery} ${nrepeat} ${nfreq} c_thermo_press mode vector
fix avp all ave/time  20 ${nrepeat} ${nfreq} c_thermo_press mode vector
fix avp all ave/time  20 10 ${nfreq} c_thermo_press mode vector
fix avp all ave/time  20 10 200 c_thermo_press mode vector
thermo		${nthermo}
thermo		200

thermo_style custom step temp pe press f_avp[1] f_avp[2] f_avp[3] f_avp[4] f_avp[5] f_avp[6] lx ly lz xlo xhi ylo yhi zlo zhi xy xz yz
thermo_modify norm no




# Setup MD

timestep ${timestep}
timestep 1
fix 4 all nvt temp 300.0 300.0 100

kspace_style    pppm 1e-6


run ${nequil}
run 4000
PPPM initialization ...
  using 12-bit tables for long-range coulomb (src/kspace.cpp:323)
  G vector (1/distance) = 0.284191
  grid = 36 36 36
  stencil order = 5
  estimated absolute RMS force accuracy = 0.000266004
  estimated relative force accuracy = 8.01046e-07
  using double precision FFTW3
  3d grid and FFT values/proc = 26875 11664
Neighbor list info ...
  update every 1 steps, delay 0 steps, check yes
  max neighbors/atom: 2000, page size: 100000
  master list distance cutoff = 13
  ghost atom cutoff = 13
  1 neighbor lists, perpetual/occasional/extra = 1 0 0
  (1) pair lj/charmmfsw/coul/long, perpetual
      attributes: half, newton off
      pair build: half/nsq/newtoff
      stencil: none
      bin: none
Per MPI rank memory allocation (min/avg/max) = 11.05 | 11.15 | 11.44 Mbytes
Step Temp PotEng Press f_avp[1] f_avp[2] f_avp[3] f_avp[4] f_avp[5] f_avp[6] Lx Ly Lz Xlo Xhi Ylo Yhi Zlo Zhi Xy Xz Yz 
       0    208.29218   -8327.9902    22239.333            0            0            0            0            0            0    29.425907    29.425907    29.425907   -14.712954    14.712954   -14.712954    14.712954   -14.712954    14.712954            0            0            0 
     200    256.70951   -8304.8009    25482.534    25278.946    25901.671    25320.177   -244.87015   -523.47107   -158.90622    29.425907    29.425907    29.425907   -14.712954    14.712954   -14.712954    14.712954   -14.712954    14.712954            0            0            0 
     400    289.11071   -8098.6818    22782.861    24613.684     24436.65    24395.115    458.79916   -691.36574    348.20286    29.425907    29.425907    29.425907   -14.712954    14.712954   -14.712954    14.712954   -14.712954    14.712954            0            0            0 
     600    301.37226   -7891.3841    15947.748    19397.508     19294.59    19509.047   -189.64151    367.21945    380.73985    29.425907    29.425907    29.425907   -14.712954    14.712954   -14.712954    14.712954   -14.712954    14.712954            0            0            0 
     800    302.03429   -7844.2227    7369.7517    11519.527    11343.804    11722.219   -232.14628    351.18693    468.35531    29.425907    29.425907    29.425907   -14.712954    14.712954   -14.712954    14.712954   -14.712954    14.712954            0            0            0 
    1000    304.50763    -7912.394    2342.4464    4284.4043    4877.7923    4884.4398    494.09489   -44.207876    919.54515    29.425907    29.425907    29.425907   -14.712954    14.712954   -14.712954    14.712954   -14.712954    14.712954            0            0            0 
    1200    297.60203   -7924.2185   -988.14321    471.17525    501.19918    -176.1853    72.555573   -27.592511    286.78418    29.425907    29.425907    29.425907   -14.712954    14.712954   -14.712954    14.712954   -14.712954    14.712954            0            0            0 
    1400     303.3289   -8028.1981   -4193.2394   -4044.2137   -3223.7991   -2671.5633    553.70058    5.2100662    198.18788    29.425907    29.425907    29.425907   -14.712954    14.712954   -14.712954    14.712954   -14.712954    14.712954            0            0            0 
    1600    295.30753   -7946.5216   -5544.2038   -5205.2353   -6096.0983   -5484.4681    268.93766   -5.4110413   -62.813088    29.425907    29.425907    29.425907   -14.712954    14.712954   -14.712954    14.712954   -14.712954    14.712954            0            0            0 
    1800    303.26994    -8037.973   -6249.5149   -5834.9007   -6403.9919   -5669.0478    520.66436    109.59875    48.711879    29.425907    29.425907    29.425907   -14.712954    14.712954   -14.712954    14.712954   -14.712954    14.712954            0            0            0 
    2000    289.32214   -8004.2821   -5298.6288   -5739.4292   -5970.1182    -6408.042    495.64399    138.45017    392.68107    29.425907    29.425907    29.425907   -14.712954    14.712954   -14.712954    14.712954   -14.712954    14.712954            0            0            0 
    2200    297.40285   -7898.8446   -6142.4142   -6807.2244   -6577.0552   -5858.6242   -71.789711    47.421436    3.8593458    29.425907    29.425907    29.425907   -14.712954    14.712954   -14.712954    14.712954   -14.712954    14.712954            0            0            0 
    2400      291.722    -7860.953    -5618.191   -6024.5202   -4557.6029   -6038.3714   -289.83429    261.02212   -56.794814    29.425907    29.425907    29.425907   -14.712954    14.712954   -14.712954    14.712954   -14.712954    14.712954            0            0            0 
    2600    293.78552   -7894.1862   -4118.2132   -4953.9186   -5055.7833   -3957.1325    503.65266   -35.745567    374.71543    29.425907    29.425907    29.425907   -14.712954    14.712954   -14.712954    14.712954   -14.712954    14.712954            0            0            0 
    2800    301.12474   -7873.7637    -3516.288   -3803.8948   -4068.5094   -3320.8886   -221.30463    662.67669   -336.73416    29.425907    29.425907    29.425907   -14.712954    14.712954   -14.712954    14.712954   -14.712954    14.712954            0            0            0 
    3000    299.72824   -7958.3131   -2609.9764   -2591.1836   -4110.5592   -2754.3964   -699.76282    496.54104   -645.50575    29.425907    29.425907    29.425907   -14.712954    14.712954   -14.712954    14.712954   -14.712954    14.712954            0            0            0 
    3200    305.07666   -7992.8632   -1650.6688   -2134.5987   -2431.3402    -1915.868    265.34923    610.69334    211.47705    29.425907    29.425907    29.425907   -14.712954    14.712954   -14.712954    14.712954   -14.712954    14.712954            0            0            0 
    3400    297.72322   -7972.6712   -332.36025   -1103.4997   -1163.8207   -1880.9944   -545.94504     7.586486     4.028767    29.425907    29.425907    29.425907   -14.712954    14.712954   -14.712954    14.712954   -14.712954    14.712954            0            0            0 
    3600    290.18452   -8023.8119    3.7945994   -193.92174   -704.56563    74.388477    233.57517   -359.16837   -27.943595    29.425907    29.425907    29.425907   -14.712954    14.712954   -14.712954    14.712954   -14.712954    14.712954            0            0            0 
    3800    305.39735   -8039.2634    458.68375   -414.77277    695.25254   -820.66933    432.08649     -658.836   -489.16038    29.425907    29.425907    29.425907   -14.712954    14.712954   -14.712954    14.712954   -14.712954    14.712954            0            0            0 
    4000    310.92241   -8047.3377    716.85145    165.28426   -499.99869    750.34842    767.34924   -720.43673    170.51038    29.425907    29.425907    29.425907   -14.712954    14.712954   -14.712954    14.712954   -14.712954    14.712954            0            0            0 
Loop time of 62.8086 on 4 procs for 4000 steps with 2565 atoms

Performance: 5.502 ns/day, 4.362 hours/ns, 63.686 timesteps/s
97.9% CPU use with 4 MPI tasks x no OpenMP threads

MPI task timing breakdown:
Section |  min time  |  avg time  |  max time  |%varavg| %total
---------------------------------------------------------------
Pair    | 38.871     | 39.672     | 40.423     |   8.8 | 63.16
Bond    | 0.12589    | 0.12653    | 0.12723    |   0.1 |  0.20
Kspace  | 10.689     | 11.408     | 12.194     |  16.0 | 18.16
Neigh   | 10.677     | 10.679     | 10.681     |   0.0 | 17.00
Comm    | 0.68342    | 0.6886     | 0.69319    |   0.5 |  1.10
Output  | 0.00068274 | 0.0008099  | 0.0011821  |   0.0 |  0.00
Modify  | 0.14869    | 0.17735    | 0.20247    |   5.3 |  0.28
Other   |            | 0.05609    |            |       |  0.09

Nlocal:    641.25 ave 655 max 626 min
Histogram: 1 1 0 0 0 0 0 0 0 2
Nghost:    8595.75 ave 8685 max 8509 min
Histogram: 1 0 0 0 1 1 0 0 0 1
Neighs:    488188 ave 501286 max 474973 min
Histogram: 2 0 0 0 0 0 0 0 0 2

Total # of neighbors = 1952753
Ave neighs/atom = 761.307
Ave special neighs/atom = 2
Neighbor list builds = 473
Dangerous builds = 0


include potential.mod
# NOTE: This script can be modified for different pair styles
# See in.elastic for more info.

reset_timestep 0


# Setup neighbor style
neighbor 1.0 nsq
neigh_modify once no every 1 delay 0 check yes

# Setup output

fix avp all ave/time  ${nevery} ${nrepeat} ${nfreq} c_thermo_press mode vector
fix avp all ave/time  20 ${nrepeat} ${nfreq} c_thermo_press mode vector
fix avp all ave/time  20 10 ${nfreq} c_thermo_press mode vector
fix avp all ave/time  20 10 200 c_thermo_press mode vector
thermo		${nthermo}
thermo		200

thermo_style custom step temp pe press f_avp[1] f_avp[2] f_avp[3] f_avp[4] f_avp[5] f_avp[6] lx ly lz xlo xhi ylo yhi zlo zhi xy xz yz
WARNING: New thermo_style command, previous thermo_modify settings will be lost (src/output.cpp:708)
thermo_modify norm no




# Setup MD

timestep ${timestep}
timestep 1
fix 4 all nvt temp 300.0 300.0 100

kspace_style    pppm 1e-6


run ${nrun}
run 2000
PPPM initialization ...
  using 12-bit tables for long-range coulomb (src/kspace.cpp:323)
  G vector (1/distance) = 0.284191
  grid = 36 36 36
  stencil order = 5
  estimated absolute RMS force accuracy = 0.000266004
  estimated relative force accuracy = 8.01046e-07
  using double precision FFTW3
  3d grid and FFT values/proc = 26875 11664
Per MPI rank memory allocation (min/avg/max) = 11.43 | 11.44 | 11.44 Mbytes
Step Temp PotEng Press f_avp[1] f_avp[2] f_avp[3] f_avp[4] f_avp[5] f_avp[6] Lx Ly Lz Xlo Xhi Ylo Yhi Zlo Zhi Xy Xz Yz 
       0    310.92241   -8047.3377    716.85145            0            0            0            0            0            0    29.425907    29.425907    29.425907   -14.712954    14.712954   -14.712954    14.712954   -14.712954    14.712954            0            0            0 
     200    299.69574   -8074.3127   -273.67342    61.582219    110.14318   -213.24484    -296.2343   -43.510587     33.01658    29.425907    29.425907    29.425907   -14.712954    14.712954   -14.712954    14.712954   -14.712954    14.712954            0            0            0 
     400    291.42096   -7990.9419    1323.2725    344.22645    732.89097    513.79652   -195.65031    755.46711   -500.60183    29.425907    29.425907    29.425907   -14.712954    14.712954   -14.712954    14.712954   -14.712954    14.712954            0            0            0 
     600    305.08624   -7998.9554    1039.2584    631.70138    831.13174    354.53535    256.52721   -806.43398    634.09522    29.425907    29.425907    29.425907   -14.712954    14.712954   -14.712954    14.712954   -14.712954    14.712954            0            0            0 
     800    300.59804   -7950.3742    117.44074   -115.02369     27.67684    1714.6562    65.579779   -463.05449   -329.83627    29.425907    29.425907    29.425907   -14.712954    14.712954   -14.712954    14.712954   -14.712954    14.712954            0            0            0 
    1000    293.57059   -7965.0812   -160.33956     1038.422    69.694908    477.27789    294.68467    323.83967    598.30274    29.425907    29.425907    29.425907   -14.712954    14.712954   -14.712954    14.712954   -14.712954    14.712954            0            0            0 
    1200    305.25731   -7956.0631    1816.5306     712.9755    1720.2314    1588.5963    253.83979    531.70532    -1015.252    29.425907    29.425907    29.425907   -14.712954    14.712954   -14.712954    14.712954   -14.712954    14.712954            0            0            0 
    1400    301.04024   -8013.9396    2156.6666    2542.7608    3051.0547    1817.4169    46.413195    79.219914    15.018271    29.425907    29.425907    29.425907   -14.712954    14.712954   -14.712954    14.712954   -14.712954    14.712954            0            0            0 
    1600    305.41441    -8034.474    3165.5743    2762.1148    2409.2015    1749.8626   -285.64463     589.5419    694.54927    29.425907    29.425907    29.425907   -14.712954    14.712954   -14.712954    14.712954   -14.712954    14.712954            0            0            0 
    1800    289.59933   -8013.5182    1116.7041    2581.3784    1681.5752    2923.5636    706.35397   -594.13958    628.80172    29.425907    29.425907    29.425907   -14.712954    14.712954   -14.712954    14.712954   -14.712954    14.712954            0            0            0 
    2000    300.04885   -8002.0122    1308.7422    1767.1397    1004.9302    945.45833    78.085579    429.20125    207.91058    29.425907    29.425907    29.425907   -14.712954    14.712954   -14.712954    14.712954   -14.712954    14.712954            0            0            0 
Loop time of 31.1432 on 4 procs for 2000 steps with 2565 atoms

Performance: 5.549 ns/day, 4.325 hours/ns, 64.219 timesteps/s
97.9% CPU use with 4 MPI tasks x no OpenMP threads

MPI task timing breakdown:
Section |  min time  |  avg time  |  max time  |%varavg| %total
---------------------------------------------------------------
Pair    | 19.429     | 19.821     | 20.04      |   5.4 | 63.64
Bond    | 0.062645   | 0.063298   | 0.063682   |   0.2 |  0.20
Kspace  | 5.3067     | 5.5285     | 5.9295     |  10.4 | 17.75
Neigh   | 5.2757     | 5.2764     | 5.2774     |   0.0 | 16.94
Comm    | 0.34345    | 0.34605    | 0.34839    |   0.4 |  1.11
Output  | 0.00033563 | 0.0004064  | 0.00061071 |   0.0 |  0.00
Modify  | 0.072722   | 0.079721   | 0.084563   |   1.8 |  0.26
Other   |            | 0.02787    |            |       |  0.09

Nlocal:    641.25 ave 656 max 615 min
Histogram: 1 0 0 0 0 0 1 0 1 1
Nghost:    8651.25 ave 8696 max 8614 min
Histogram: 1 1 0 0 0 0 1 0 0 1
Neighs:    487772 ave 499376 max 469960 min
Histogram: 1 0 0 0 0 0 1 1 0 1

Total # of neighbors = 1951090
Ave neighs/atom = 760.659
Ave special neighs/atom = 2
Neighbor list builds = 234
Dangerous builds = 0

variable pxx0 equal f_avp[1]
variable pyy0 equal f_avp[2]
variable pzz0 equal f_avp[3]
variable pxy0 equal f_avp[4]
variable pxz0 equal f_avp[5]
variable pyz0 equal f_avp[6]

variable tmp equal lx
variable lx0 equal ${tmp}
variable lx0 equal 29.4259070715506
variable tmp equal ly
variable ly0 equal ${tmp}
variable ly0 equal 29.4259070715506
variable tmp equal lz
variable lz0 equal ${tmp}
variable lz0 equal 29.4259070715506

# These formulas define the derivatives w.r.t. strain components
# Constants uses $, variables use v_
variable d1 equal -(v_pxx1-${pxx0})/(v_delta/v_len0)*${cfac}
variable d1 equal -(v_pxx1-1767.13974649654)/(v_delta/v_len0)*${cfac}
variable d1 equal -(v_pxx1-1767.13974649654)/(v_delta/v_len0)*0.0001
variable d2 equal -(v_pyy1-${pyy0})/(v_delta/v_len0)*${cfac}
variable d2 equal -(v_pyy1-1004.93016442811)/(v_delta/v_len0)*${cfac}
variable d2 equal -(v_pyy1-1004.93016442811)/(v_delta/v_len0)*0.0001
variable d3 equal -(v_pzz1-${pzz0})/(v_delta/v_len0)*${cfac}
variable d3 equal -(v_pzz1-945.458326799268)/(v_delta/v_len0)*${cfac}
variable d3 equal -(v_pzz1-945.458326799268)/(v_delta/v_len0)*0.0001
variable d4 equal -(v_pyz1-${pyz0})/(v_delta/v_len0)*${cfac}
variable d4 equal -(v_pyz1-207.910583302626)/(v_delta/v_len0)*${cfac}
variable d4 equal -(v_pyz1-207.910583302626)/(v_delta/v_len0)*0.0001
variable d5 equal -(v_pxz1-${pxz0})/(v_delta/v_len0)*${cfac}
variable d5 equal -(v_pxz1-429.201252897224)/(v_delta/v_len0)*${cfac}
variable d5 equal -(v_pxz1-429.201252897224)/(v_delta/v_len0)*0.0001
variable d6 equal -(v_pxy1-${pxy0})/(v_delta/v_len0)*${cfac}
variable d6 equal -(v_pxy1-78.0855785110352)/(v_delta/v_len0)*${cfac}
variable d6 equal -(v_pxy1-78.0855785110352)/(v_delta/v_len0)*0.0001

# Write restart
write_restart restart.equil
PPPM initialization ...
  using 12-bit tables for long-range coulomb (src/kspace.cpp:323)
  G vector (1/distance) = 0.284191
  grid = 36 36 36
  stencil order = 5
  estimated absolute RMS force accuracy = 0.000266004
  estimated relative force accuracy = 8.01046e-07
  using double precision FFTW3
  3d grid and FFT values/proc = 26875 11664

# uxx Perturbation

variable dir equal 1
include displace.mod
# NOTE: This script should not need to be
# modified. See in.elastic for more info.
#
# Find which reference length to use

if "${dir} == 1" then    "variable len0 equal ${lx0}"
variable len0 equal ${lx0}
variable len0 equal 29.4259070715506
if "${dir} == 2" then    "variable len0 equal ${ly0}"
if "${dir} == 3" then    "variable len0 equal ${lz0}"
if "${dir} == 4" then    "variable len0 equal ${lz0}"
if "${dir} == 5" then    "variable len0 equal ${lz0}"
if "${dir} == 6" then    "variable len0 equal ${ly0}"

# Reset box and simulation parameters

clear
box tilt large
read_restart restart.equil
  restoring atom style full from restart
  triclinic box = (-14.713 -14.713 -14.713) to (14.713 14.713 14.713) with tilt (0 0 0)
  1 by 2 by 2 MPI processor grid
Switching to CHARMM coulomb energy conversion constant (src/KSPACE/pair_lj_charmmfsw_coul_long.cpp:67)
  restoring pair style lj/charmmfsw/coul/long from restart
  restoring bond style harmonic from restart
  restoring angle style charmm from restart
  restoring dihedral style charmmfsw from restart
  restoring improper style harmonic from restart
  2565 atoms
  1710 bonds
  855 angles
  2 = max # of 1-2 neighbors
  1 = max # of 1-3 neighbors
  1 = max # of 1-4 neighbors
  2 = max # of special neighbors
  special bonds CPU = 0.000243732 secs
  read_restart CPU = 0.000968975 secs
include potential.mod
# NOTE: This script can be modified for different pair styles
# See in.elastic for more info.

reset_timestep 0


# Setup neighbor style
neighbor 1.0 nsq
neigh_modify once no every 1 delay 0 check yes

# Setup output

fix avp all ave/time  ${nevery} ${nrepeat} ${nfreq} c_thermo_press mode vector
fix avp all ave/time  20 ${nrepeat} ${nfreq} c_thermo_press mode vector
fix avp all ave/time  20 10 ${nfreq} c_thermo_press mode vector
fix avp all ave/time  20 10 200 c_thermo_press mode vector
thermo		${nthermo}
thermo		200

thermo_style custom step temp pe press f_avp[1] f_avp[2] f_avp[3] f_avp[4] f_avp[5] f_avp[6] lx ly lz xlo xhi ylo yhi zlo zhi xy xz yz
thermo_modify norm no




# Setup MD

timestep ${timestep}
timestep 1
fix 4 all nvt temp 300.0 300.0 100
Resetting global fix info from restart file:
  fix style: nvt, fix ID: 4

kspace_style    pppm 1e-6



# Negative deformation

variable delta equal -${up}*${len0}
variable delta equal -0.05*${len0}
variable delta equal -0.05*29.4259070715506
variable deltaxy equal -${up}*xy
variable deltaxy equal -0.05*xy
variable deltaxz equal -${up}*xz
variable deltaxz equal -0.05*xz
variable deltayz equal -${up}*yz
variable deltayz equal -0.05*yz
if "${dir} == 1" then    "change_box all x delta 0 ${delta} xy delta ${deltaxy} xz delta ${deltaxz} remap units box"
change_box all x delta 0 ${delta} xy delta ${deltaxy} xz delta ${deltaxz} remap units box
change_box all x delta 0 -1.47129535357753 xy delta ${deltaxy} xz delta ${deltaxz} remap units box
change_box all x delta 0 -1.47129535357753 xy delta -0 xz delta ${deltaxz} remap units box
change_box all x delta 0 -1.47129535357753 xy delta -0 xz delta -0 remap units box
  triclinic box = (-14.713 -14.713 -14.713) to (13.2417 14.713 14.713) with tilt (0 0 0)
  triclinic box = (-14.713 -14.713 -14.713) to (13.2417 14.713 14.713) with tilt (0 0 0)
  triclinic box = (-14.713 -14.713 -14.713) to (13.2417 14.713 14.713) with tilt (0 0 0)
if "${dir} == 2" then    "change_box all y delta 0 ${delta} yz delta ${deltayz} remap units box"
if "${dir} == 3" then    "change_box all z delta 0 ${delta} remap units box"
if "${dir} == 4" then    "change_box all yz delta ${delta} remap units box"
if "${dir} == 5" then    "change_box all xz delta ${delta} remap units box"
if "${dir} == 6" then    "change_box all xy delta ${delta} remap units box"

# Run MD

run ${nequil}
run 4000
PPPM initialization ...
  using 12-bit tables for long-range coulomb (src/kspace.cpp:323)
  G vector (1/distance) = 0.285003
  grid = 36 36 36
  stencil order = 5
  estimated absolute RMS force accuracy = 0.000255207
  estimated relative force accuracy = 7.6853e-07
  using double precision FFTW3
  3d grid and FFT values/proc = 26875 11664
All restart file global fix info was re-assigned
Neighbor list info ...
  update every 1 steps, delay 0 steps, check yes
  max neighbors/atom: 2000, page size: 100000
  master list distance cutoff = 13
  ghost atom cutoff = 13
  1 neighbor lists, perpetual/occasional/extra = 1 0 0
  (1) pair lj/charmmfsw/coul/long, perpetual
      attributes: half, newton on
      pair build: half/nsq/newton
      stencil: none
      bin: none
Per MPI rank memory allocation (min/avg/max) = 10.68 | 10.69 | 10.69 Mbytes
Step Temp PotEng Press f_avp[1] f_avp[2] f_avp[3] f_avp[4] f_avp[5] f_avp[6] Lx Ly Lz Xlo Xhi Ylo Yhi Zlo Zhi Xy Xz Yz 
       0    300.04885   -7502.0304    34476.223            0            0            0            0            0            0    27.954612    29.425907    29.425907   -14.712954    13.241658   -14.712954    14.712954   -14.712954    14.712954            0            0            0 
     200    301.02593   -7849.2243    22159.026    26840.801    23856.594    25272.108    91.093086   -593.25822    1144.8297    27.954612    29.425907    29.425907   -14.712954    13.241658   -14.712954    14.712954   -14.712954    14.712954            0            0            0 
     400    296.55049   -8117.3273    18256.835    21464.365    19578.058    19078.159   -92.512085   -299.93254    58.893972    27.954612    29.425907    29.425907   -14.712954    13.241658   -14.712954    14.712954   -14.712954    14.712954            0            0            0 
     600    295.92953   -8151.6907    15017.699    16215.605    15974.073    17845.611    162.97004    101.01644   -152.87994    27.954612    29.425907    29.425907   -14.712954    13.241658   -14.712954    14.712954   -14.712954    14.712954            0            0            0 
     800    306.69153   -8175.5294    13211.457     14542.81    14103.744    11895.349   -271.63553    145.86847    170.62605    27.954612    29.425907    29.425907   -14.712954    13.241658   -14.712954    14.712954   -14.712954    14.712954            0            0            0 
    1000    292.97221   -8201.9873    11593.687    12536.476    11829.848    12742.083   -224.92258    313.75122    -174.2123    27.954612    29.425907    29.425907   -14.712954    13.241658   -14.712954    14.712954   -14.712954    14.712954            0            0            0 
    1200     303.9619   -8240.9596    9605.8405    9923.6441    10785.776    10328.301   -239.43568    459.36334    873.29588    27.954612    29.425907    29.425907   -14.712954    13.241658   -14.712954    14.712954   -14.712954    14.712954            0            0            0 
    1400    305.39819   -8216.4793    7521.4201    8320.0106     8508.051    8446.5391    840.17539   -151.11349    390.40321    27.954612    29.425907    29.425907   -14.712954    13.241658   -14.712954    14.712954   -14.712954    14.712954            0            0            0 
    1600    291.84795   -8202.0073    5586.2154    6113.8317    7084.5106    6925.7448    824.32604   -1.1885853    762.88695    27.954612    29.425907    29.425907   -14.712954    13.241658   -14.712954    14.712954   -14.712954    14.712954            0            0            0 
    1800    298.99425   -8163.2599    5569.1977     6391.845    5460.8388    5640.6992   -680.37836   -741.06711    5.2212936    27.954612    29.425907    29.425907   -14.712954    13.241658   -14.712954    14.712954   -14.712954    14.712954            0            0            0 
    2000    301.37552    -8183.732    4393.5049    4497.0996    4649.3546    4031.3452   -472.07277    477.24734   -386.02112    27.954612    29.425907    29.425907   -14.712954    13.241658   -14.712954    14.712954   -14.712954    14.712954            0            0            0 
    2200    290.82818   -8173.6498    3157.5345    3121.9874    3678.5336    3995.1387    336.77862   -1088.6763    55.690748    27.954612    29.425907    29.425907   -14.712954    13.241658   -14.712954    14.712954   -14.712954    14.712954            0            0            0 
    2400    304.45457   -8185.1227    2666.3115     2501.497    3253.8973    2748.9156    418.61398   -470.25526    69.965046    27.954612    29.425907    29.425907   -14.712954    13.241658   -14.712954    14.712954   -14.712954    14.712954            0            0            0 
    2600     297.4669   -8226.4944    2686.4971    1811.5975    1746.1124    3540.2951    562.39044   -490.90679   -7.7628831    27.954612    29.425907    29.425907   -14.712954    13.241658   -14.712954    14.712954   -14.712954    14.712954            0            0            0 
    2800    298.07953   -8173.3863    2706.1975    3316.2321    1956.8912    1332.3461    -76.32026    536.41267    478.41115    27.954612    29.425907    29.425907   -14.712954    13.241658   -14.712954    14.712954   -14.712954    14.712954            0            0            0 
    3000    300.18639   -8184.4905    1971.0898    1517.1842    2835.3403    2591.1589   -219.63523   -27.891028   -402.95301    27.954612    29.425907    29.425907   -14.712954    13.241658   -14.712954    14.712954   -14.712954    14.712954            0            0            0 
    3200    297.80065   -8268.2668    403.14866    2206.0013    418.40674    1378.9661    623.50577    697.00393    235.32464    27.954612    29.425907    29.425907   -14.712954    13.241658   -14.712954    14.712954   -14.712954    14.712954            0            0            0 
    3400    304.12008   -8223.8601    421.67252    772.56434    417.59845    829.68734   -162.34629   -368.09953    323.47972    27.954612    29.425907    29.425907   -14.712954    13.241658   -14.712954    14.712954   -14.712954    14.712954            0            0            0 
    3600    296.19558   -8158.4273     1077.405   -401.05209    273.04787    621.90747    -563.7742   -37.515387    36.376337    27.954612    29.425907    29.425907   -14.712954    13.241658   -14.712954    14.712954   -14.712954    14.712954            0            0            0 
    3800    309.16474   -8099.3411    1084.9828    1152.4034    843.97578    853.87776    196.22426   -120.30993    540.25078    27.954612    29.425907    29.425907   -14.712954    13.241658   -14.712954    14.712954   -14.712954    14.712954            0            0            0 
    4000    304.98481   -8114.8471    716.55445    1386.9042   -262.09179    595.39046   -631.73173   -1255.0357   -257.60661    27.954612    29.425907    29.425907   -14.712954    13.241658   -14.712954    14.712954   -14.712954    14.712954            0            0            0 
Loop time of 68.4122 on 4 procs for 4000 steps with 2565 atoms

Performance: 5.052 ns/day, 4.751 hours/ns, 58.469 timesteps/s
97.6% CPU use with 4 MPI tasks x no OpenMP threads

MPI task timing breakdown:
Section |  min time  |  avg time  |  max time  |%varavg| %total
---------------------------------------------------------------
Pair    | 30.236     | 30.975     | 31.595     |   9.2 | 45.28
Bond    | 0.13031    | 0.13324    | 0.1365     |   0.7 |  0.19
Kspace  | 11.521     | 12.123     | 12.844     |  14.4 | 17.72
Neigh   | 23.556     | 23.557     | 23.557     |   0.0 | 34.43
Comm    | 1.364      | 1.3869     | 1.4069     |   1.3 |  2.03
Output  | 0.00070427 | 0.00084682 | 0.0012573  |   0.0 |  0.00
Modify  | 0.12683    | 0.12714    | 0.12743    |   0.1 |  0.19
Other   |            | 0.1095     |            |       |  0.16

Nlocal:    641.25 ave 650 max 636 min
Histogram: 2 0 0 0 1 0 0 0 0 1
Nghost:    8797.5 ave 8853 max 8761 min
Histogram: 2 0 0 0 0 1 0 0 0 1
Neighs:    312406 ave 318212 max 309201 min
Histogram: 2 0 0 1 0 0 0 0 0 1

Total # of neighbors = 1249622
Ave neighs/atom = 487.182
Ave special neighs/atom = 2
Neighbor list builds = 448
Dangerous builds = 0
include potential.mod
# NOTE: This script can be modified for different pair styles
# See in.elastic for more info.

reset_timestep 0


# Setup neighbor style
neighbor 1.0 nsq
neigh_modify once no every 1 delay 0 check yes

# Setup output

fix avp all ave/time  ${nevery} ${nrepeat} ${nfreq} c_thermo_press mode vector
fix avp all ave/time  20 ${nrepeat} ${nfreq} c_thermo_press mode vector
fix avp all ave/time  20 10 ${nfreq} c_thermo_press mode vector
fix avp all ave/time  20 10 200 c_thermo_press mode vector
thermo		${nthermo}
thermo		200

thermo_style custom step temp pe press f_avp[1] f_avp[2] f_avp[3] f_avp[4] f_avp[5] f_avp[6] lx ly lz xlo xhi ylo yhi zlo zhi xy xz yz
WARNING: New thermo_style command, previous thermo_modify settings will be lost (src/output.cpp:708)
thermo_modify norm no




# Setup MD

timestep ${timestep}
timestep 1
fix 4 all nvt temp 300.0 300.0 100

kspace_style    pppm 1e-6


run ${nrun}
run 2000
PPPM initialization ...
  using 12-bit tables for long-range coulomb (src/kspace.cpp:323)
  G vector (1/distance) = 0.285003
  grid = 36 36 36
  stencil order = 5
  estimated absolute RMS force accuracy = 0.000255207
  estimated relative force accuracy = 7.6853e-07
  using double precision FFTW3
  3d grid and FFT values/proc = 26875 11664
Per MPI rank memory allocation (min/avg/max) = 10.68 | 10.69 | 10.69 Mbytes
Step Temp PotEng Press f_avp[1] f_avp[2] f_avp[3] f_avp[4] f_avp[5] f_avp[6] Lx Ly Lz Xlo Xhi Ylo Yhi Zlo Zhi Xy Xz Yz 
       0    304.98481   -8114.8471    716.55445            0            0            0            0            0            0    27.954612    29.425907    29.425907   -14.712954    13.241658   -14.712954    14.712954   -14.712954    14.712954            0            0            0 
     200    302.53488   -8228.3372   -543.86608   -561.90515    1694.2679   -631.89648    116.76826    367.27555    136.58436    27.954612    29.425907    29.425907   -14.712954    13.241658   -14.712954    14.712954   -14.712954    14.712954            0            0            0 
     400    295.98788   -8204.8963    127.18689   -224.35846   -250.64033   -469.71205    -283.9853   -270.16147    107.61963    27.954612    29.425907    29.425907   -14.712954    13.241658   -14.712954    14.712954   -14.712954    14.712954            0            0            0 
     600    305.23479   -8179.5285   -1666.9136    5.0100466   -477.43353   -1851.2467   -578.58718    162.77436   -245.09884    27.954612    29.425907    29.425907   -14.712954    13.241658   -14.712954    14.712954   -14.712954    14.712954            0            0            0 
     800    289.95753   -8204.2314   -2487.8702   -2344.8272   -2444.2693   -802.82764    402.87163   -50.499247    755.17528    27.954612    29.425907    29.425907   -14.712954    13.241658   -14.712954    14.712954   -14.712954    14.712954            0            0            0 
    1000     302.8295   -8200.2735   -785.57346   -2504.8467   -1157.8711   -343.50907    68.112527   -590.21017    118.37011    27.954612    29.425907    29.425907   -14.712954    13.241658   -14.712954    14.712954   -14.712954    14.712954            0            0            0 
    1200    298.14476    -8205.027   -1478.0679    -1326.418   -2383.3394   -853.23568    6.1720186    848.80171   -186.18156    27.954612    29.425907    29.425907   -14.712954    13.241658   -14.712954    14.712954   -14.712954    14.712954            0            0            0 
    1400    294.10094   -8274.0906   -1038.8807    -863.2672   -1316.0233   -1137.2045   -181.84095    878.96922    171.67822    27.954612    29.425907    29.425907   -14.712954    13.241658   -14.712954    14.712954   -14.712954    14.712954            0            0            0 
    1600    303.49673   -8274.3322   -735.65525   -166.84935   -1765.4038   -268.35983   -239.88205   -740.86206    -51.41901    27.954612    29.425907    29.425907   -14.712954    13.241658   -14.712954    14.712954   -14.712954    14.712954            0            0            0 
    1800    301.04748   -8148.3475   -729.33566   -218.66306   -953.59903   -32.624482    843.92163    171.46253    1082.3512    27.954612    29.425907    29.425907   -14.712954    13.241658   -14.712954    14.712954   -14.712954    14.712954            0            0            0 
    2000    310.01679   -8212.8582   -587.53528   -530.24069   -1429.5083    202.31832    593.62725      119.188    -414.7287    27.954612    29.425907    29.425907   -14.712954    13.241658   -14.712954    14.712954   -14.712954    14.712954            0            0            0 
Loop time of 33.7448 on 4 procs for 2000 steps with 2565 atoms

Performance: 5.121 ns/day, 4.687 hours/ns, 59.268 timesteps/s
97.8% CPU use with 4 MPI tasks x no OpenMP threads

MPI task timing breakdown:
Section |  min time  |  avg time  |  max time  |%varavg| %total
---------------------------------------------------------------
Pair    | 15.107     | 15.339     | 15.622     |   4.7 | 45.46
Bond    | 0.065226   | 0.065976   | 0.066752   |   0.3 |  0.20
Kspace  | 5.5955     | 5.8709     | 6.0892     |   7.3 | 17.40
Neigh   | 11.675     | 11.676     | 11.676     |   0.0 | 34.60
Comm    | 0.65452    | 0.67385    | 0.68781    |   1.6 |  2.00
Output  | 0.00035213 | 0.00042761 | 0.00064966 |   0.0 |  0.00
Modify  | 0.062495   | 0.063864   | 0.065351   |   0.4 |  0.19
Other   |            | 0.05504    |            |       |  0.16

Nlocal:    641.25 ave 656 max 612 min
Histogram: 1 0 0 0 0 0 0 1 1 1
Nghost:    8858.75 ave 8964 max 8737 min
Histogram: 1 0 0 0 0 2 0 0 0 1
Neighs:    312274 ave 321659 max 294988 min
Histogram: 1 0 0 0 0 0 0 1 1 1

Total # of neighbors = 1249096
Ave neighs/atom = 486.977
Ave special neighs/atom = 2
Neighbor list builds = 222
Dangerous builds = 0

# Obtain new stress tensor

variable pxx1 equal f_avp[1]
variable pyy1 equal f_avp[2]
variable pzz1 equal f_avp[3]
variable pxy1 equal f_avp[4]
variable pxz1 equal f_avp[5]
variable pyz1 equal f_avp[6]

# Compute elastic constant from pressure tensor

variable C1neg equal ${d1}
variable C1neg equal -4.59476086778635
variable C2neg equal ${d2}
variable C2neg equal -4.86887689256748
variable C3neg equal ${d3}
variable C3neg equal -1.48628001339118
variable C4neg equal ${d4}
variable C4neg equal -1.24527857578626
variable C5neg equal ${d5}
variable C5neg equal -0.620026506485458
variable C6neg equal ${d6}
variable C6neg equal 1.03108334961494

# Reset box and simulation parameters

clear
box tilt large
read_restart restart.equil
  restoring atom style full from restart
  triclinic box = (-14.713 -14.713 -14.713) to (14.713 14.713 14.713) with tilt (0 0 0)
  1 by 2 by 2 MPI processor grid
Switching to CHARMM coulomb energy conversion constant (src/KSPACE/pair_lj_charmmfsw_coul_long.cpp:67)
  restoring pair style lj/charmmfsw/coul/long from restart
  restoring bond style harmonic from restart
  restoring angle style charmm from restart
  restoring dihedral style charmmfsw from restart
  restoring improper style harmonic from restart
  2565 atoms
  1710 bonds
  855 angles
  2 = max # of 1-2 neighbors
  1 = max # of 1-3 neighbors
  1 = max # of 1-4 neighbors
  2 = max # of special neighbors
  special bonds CPU = 0.000240427 secs
  read_restart CPU = 0.00100091 secs
include potential.mod
# NOTE: This script can be modified for different pair styles
# See in.elastic for more info.

reset_timestep 0


# Setup neighbor style
neighbor 1.0 nsq
neigh_modify once no every 1 delay 0 check yes

# Setup output

fix avp all ave/time  ${nevery} ${nrepeat} ${nfreq} c_thermo_press mode vector
fix avp all ave/time  20 ${nrepeat} ${nfreq} c_thermo_press mode vector
fix avp all ave/time  20 10 ${nfreq} c_thermo_press mode vector
fix avp all ave/time  20 10 200 c_thermo_press mode vector
thermo		${nthermo}
thermo		200

thermo_style custom step temp pe press f_avp[1] f_avp[2] f_avp[3] f_avp[4] f_avp[5] f_avp[6] lx ly lz xlo xhi ylo yhi zlo zhi xy xz yz
thermo_modify norm no




# Setup MD

timestep ${timestep}
timestep 1
fix 4 all nvt temp 300.0 300.0 100
Resetting global fix info from restart file:
  fix style: nvt, fix ID: 4

kspace_style    pppm 1e-6



# Positive deformation

variable delta equal ${up}*${len0}
variable delta equal 0.05*${len0}
variable delta equal 0.05*29.4259070715506
variable deltaxy equal ${up}*xy
variable deltaxy equal 0.05*xy
variable deltaxz equal ${up}*xz
variable deltaxz equal 0.05*xz
variable deltayz equal ${up}*yz
variable deltayz equal 0.05*yz
if "${dir} == 1" then    "change_box all x delta 0 ${delta} xy delta ${deltaxy} xz delta ${deltaxz} remap units box"
change_box all x delta 0 ${delta} xy delta ${deltaxy} xz delta ${deltaxz} remap units box
change_box all x delta 0 1.47129535357753 xy delta ${deltaxy} xz delta ${deltaxz} remap units box
change_box all x delta 0 1.47129535357753 xy delta 0 xz delta ${deltaxz} remap units box
change_box all x delta 0 1.47129535357753 xy delta 0 xz delta 0 remap units box
  triclinic box = (-14.713 -14.713 -14.713) to (16.1842 14.713 14.713) with tilt (0 0 0)
  triclinic box = (-14.713 -14.713 -14.713) to (16.1842 14.713 14.713) with tilt (0 0 0)
  triclinic box = (-14.713 -14.713 -14.713) to (16.1842 14.713 14.713) with tilt (0 0 0)
if "${dir} == 2" then    "change_box all y delta 0 ${delta} yz delta ${deltayz} remap units box"
if "${dir} == 3" then    "change_box all z delta 0 ${delta} remap units box"
if "${dir} == 4" then    "change_box all yz delta ${delta} remap units box"
if "${dir} == 5" then    "change_box all xz delta ${delta} remap units box"
if "${dir} == 6" then    "change_box all xy delta ${delta} remap units box"

# Run MD

run ${nequil}
run 4000
PPPM initialization ...
  using 12-bit tables for long-range coulomb (src/kspace.cpp:323)
  G vector (1/distance) = 0.28324
  grid = 36 36 36
  stencil order = 5
  estimated absolute RMS force accuracy = 0.000280735
  estimated relative force accuracy = 8.45404e-07
  using double precision FFTW3
  3d grid and FFT values/proc = 26875 11664
All restart file global fix info was re-assigned
Neighbor list info ...
  update every 1 steps, delay 0 steps, check yes
  max neighbors/atom: 2000, page size: 100000
  master list distance cutoff = 13
  ghost atom cutoff = 13
  1 neighbor lists, perpetual/occasional/extra = 1 0 0
  (1) pair lj/charmmfsw/coul/long, perpetual
      attributes: half, newton on
      pair build: half/nsq/newton
      stencil: none
      bin: none
Per MPI rank memory allocation (min/avg/max) = 10.28 | 10.28 | 10.28 Mbytes
Step Temp PotEng Press f_avp[1] f_avp[2] f_avp[3] f_avp[4] f_avp[5] f_avp[6] Lx Ly Lz Xlo Xhi Ylo Yhi Zlo Zhi Xy Xz Yz 
       0    300.04885   -7422.9146   -27099.974            0            0            0            0            0            0    30.897202    29.425907    29.425907   -14.712954    16.184249   -14.712954    14.712954   -14.712954    14.712954            0            0            0 
     200    305.08275   -7695.8781   -19954.478   -24301.242   -20265.013   -21634.464   -381.95637   -201.53054   -13.943038    30.897202    29.425907    29.425907   -14.712954    16.184249   -14.712954    14.712954   -14.712954    14.712954            0            0            0 
     400    298.12542   -7912.6927   -14960.415   -18557.667   -16672.063   -17303.696    487.85174   -374.36775   -204.56755    30.897202    29.425907    29.425907   -14.712954    16.184249   -14.712954    14.712954   -14.712954    14.712954            0            0            0 
     600    291.87059   -7984.3568   -13253.464   -13053.228   -14832.396   -14734.122    -410.9196    452.63738   -813.21918    30.897202    29.425907    29.425907   -14.712954    16.184249   -14.712954    14.712954   -14.712954    14.712954            0            0            0 
     800    294.45947   -8018.7896   -10646.271   -11758.898   -11296.623   -11290.098   -383.61981   -348.98439   -559.50656    30.897202    29.425907    29.425907   -14.712954    16.184249   -14.712954    14.712954   -14.712954    14.712954            0            0            0 
    1000    302.83739   -7982.9458   -9348.6952   -9578.4256   -9901.6972   -9700.6894    117.14706    279.36672   -18.623831    30.897202    29.425907    29.425907   -14.712954    16.184249   -14.712954    14.712954   -14.712954    14.712954            0            0            0 
    1200    304.76264   -7885.5737   -8274.7335   -7484.3841   -9138.6528   -9715.9409   -6.6956204    -933.8108    351.61376    30.897202    29.425907    29.425907   -14.712954    16.184249   -14.712954    14.712954   -14.712954    14.712954            0            0            0 
    1400    297.83412   -7973.5166    -7109.414   -7085.0905   -6915.4457   -6245.2949   -373.75539    8.4865901   -498.94171    30.897202    29.425907    29.425907   -14.712954    16.184249   -14.712954    14.712954   -14.712954    14.712954            0            0            0 
    1600    303.09569   -7973.7665   -6032.8962   -6183.9937   -6062.6557   -5676.7618   -353.98581   -256.11593    635.29368    30.897202    29.425907    29.425907   -14.712954    16.184249   -14.712954    14.712954   -14.712954    14.712954            0            0            0 
    1800    294.33002   -8019.0328   -4317.4199   -4758.8479   -5036.4214   -4499.2629   -371.40867     226.2051    -584.4698    30.897202    29.425907    29.425907   -14.712954    16.184249   -14.712954    14.712954   -14.712954    14.712954            0            0            0 
    2000    301.48292    -8036.037   -3972.0145   -4106.3494   -4411.3257   -4524.4668   -1010.4329    570.16597    279.20761    30.897202    29.425907    29.425907   -14.712954    16.184249   -14.712954    14.712954   -14.712954    14.712954            0            0            0 
    2200    296.71806   -8075.5052   -2587.5943   -3820.9899   -2668.8398    -3534.447    162.88454   -683.09809   -260.54268    30.897202    29.425907    29.425907   -14.712954    16.184249   -14.712954    14.712954   -14.712954    14.712954            0            0            0 
    2400    295.22394   -8047.4292   -2231.9066   -2064.5934   -2867.8597   -3180.8536    3.6227254    329.11257    575.47898    30.897202    29.425907    29.425907   -14.712954    16.184249   -14.712954    14.712954   -14.712954    14.712954            0            0            0 
    2600    300.30459   -8000.2451   -2383.6247   -2521.3336   -1072.9593   -3617.8866    42.765114   -307.14288    76.985364    30.897202    29.425907    29.425907   -14.712954    16.184249   -14.712954    14.712954   -14.712954    14.712954            0            0            0 
    2800    296.84626   -8048.6923   -2546.7419   -1310.3301   -2327.5945   -2711.5267   -762.72215    22.007646    247.04262    30.897202    29.425907    29.425907   -14.712954    16.184249   -14.712954    14.712954   -14.712954    14.712954            0            0            0 
    3000    296.75362    -8097.869    -2764.035   -2763.6982   -1431.2852   -2213.9993   -241.32113   -454.00168   -470.41185    30.897202    29.425907    29.425907   -14.712954    16.184249   -14.712954    14.712954   -14.712954    14.712954            0            0            0 
    3200    299.20651   -8012.4725   -1622.9134   -2671.2972   -2661.0091   -1403.9769   -1030.3015   -317.59006   -118.73181    30.897202    29.425907    29.425907   -14.712954    16.184249   -14.712954    14.712954   -14.712954    14.712954            0            0            0 
    3400    297.64753   -8004.2066   -1076.1866   -1655.2398   -1357.7441   -1255.1627   -428.72819    288.13495   -489.24815    30.897202    29.425907    29.425907   -14.712954    16.184249   -14.712954    14.712954   -14.712954    14.712954            0            0            0 
    3600    294.88665   -8012.4555   -1674.6876   -1480.4215   -2313.5205   -376.52706   -914.07844    96.782035    171.75475    30.897202    29.425907    29.425907   -14.712954    16.184249   -14.712954    14.712954   -14.712954    14.712954            0            0            0 
    3800    303.19375   -7975.9843   -1063.9442   -663.79627   -702.33751   -1651.6459    100.15955   -152.46557   -261.71175    30.897202    29.425907    29.425907   -14.712954    16.184249   -14.712954    14.712954   -14.712954    14.712954            0            0            0 
    4000    296.38249    -8047.873   -487.64461   -647.05339   -500.57281   -915.07029   -826.89347   -36.272945   -11.709073    30.897202    29.425907    29.425907   -14.712954    16.184249   -14.712954    14.712954   -14.712954    14.712954            0            0            0 
Loop time of 63.6455 on 4 procs for 4000 steps with 2565 atoms

Performance: 5.430 ns/day, 4.420 hours/ns, 62.848 timesteps/s
97.6% CPU use with 4 MPI tasks x no OpenMP threads

MPI task timing breakdown:
Section |  min time  |  avg time  |  max time  |%varavg| %total
---------------------------------------------------------------
Pair    | 27.419     | 27.777     | 28.163     |   5.9 | 43.64
Bond    | 0.12853    | 0.13413    | 0.13761    |   1.0 |  0.21
Kspace  | 11.799     | 12.18      | 12.571     |   9.0 | 19.14
Neigh   | 22.013     | 22.013     | 22.014     |   0.0 | 34.59
Comm    | 1.2801     | 1.3072     | 1.3261     |   1.6 |  2.05
Output  | 0.00070091 | 0.00082807 | 0.0011938  |   0.0 |  0.00
Modify  | 0.12741    | 0.12847    | 0.12953    |   0.3 |  0.20
Other   |            | 0.1045     |            |       |  0.16

Nlocal:    641.25 ave 670 max 624 min
Histogram: 2 0 0 0 1 0 0 0 0 1
Nghost:    8394.75 ave 8439 max 8357 min
Histogram: 2 0 0 0 0 0 0 0 1 1
Neighs:    282638 ave 295874 max 274690 min
Histogram: 2 0 0 0 1 0 0 0 0 1

Total # of neighbors = 1130550
Ave neighs/atom = 440.76
Ave special neighs/atom = 2
Neighbor list builds = 442
Dangerous builds = 0
include potential.mod
# NOTE: This script can be modified for different pair styles
# See in.elastic for more info.

reset_timestep 0


# Setup neighbor style
neighbor 1.0 nsq
neigh_modify once no every 1 delay 0 check yes

# Setup output

fix avp all ave/time  ${nevery} ${nrepeat} ${nfreq} c_thermo_press mode vector
fix avp all ave/time  20 ${nrepeat} ${nfreq} c_thermo_press mode vector
fix avp all ave/time  20 10 ${nfreq} c_thermo_press mode vector
fix avp all ave/time  20 10 200 c_thermo_press mode vector
thermo		${nthermo}
thermo		200

thermo_style custom step temp pe press f_avp[1] f_avp[2] f_avp[3] f_avp[4] f_avp[5] f_avp[6] lx ly lz xlo xhi ylo yhi zlo zhi xy xz yz
WARNING: New thermo_style command, previous thermo_modify settings will be lost (src/output.cpp:708)
thermo_modify norm no




# Setup MD

timestep ${timestep}
timestep 1
fix 4 all nvt temp 300.0 300.0 100

kspace_style    pppm 1e-6


run ${nrun}
run 2000
PPPM initialization ...
  using 12-bit tables for long-range coulomb (src/kspace.cpp:323)
  G vector (1/distance) = 0.28324
  grid = 36 36 36
  stencil order = 5
  estimated absolute RMS force accuracy = 0.000280735
  estimated relative force accuracy = 8.45404e-07
  using double precision FFTW3
  3d grid and FFT values/proc = 26875 11664
Per MPI rank memory allocation (min/avg/max) = 10.28 | 10.57 | 10.67 Mbytes
Step Temp PotEng Press f_avp[1] f_avp[2] f_avp[3] f_avp[4] f_avp[5] f_avp[6] Lx Ly Lz Xlo Xhi Ylo Yhi Zlo Zhi Xy Xz Yz 
       0    296.38249    -8047.873   -487.64461            0            0            0            0            0            0    30.897202    29.425907    29.425907   -14.712954    16.184249   -14.712954    14.712954   -14.712954    14.712954            0            0            0 
     200      302.513   -7981.6433    777.14998    842.28497    994.58552   -448.77446   -74.486538    -253.8199   -449.52318    30.897202    29.425907    29.425907   -14.712954    16.184249   -14.712954    14.712954   -14.712954    14.712954            0            0            0 
     400    298.46256   -7966.2021    140.89097    574.36655    -315.4972   -252.18529    648.92546   -196.13894   -585.34156    30.897202    29.425907    29.425907   -14.712954    16.184249   -14.712954    14.712954   -14.712954    14.712954            0            0            0 
     600    291.10731   -8028.6557   -168.92094   -340.19522    1188.7827    374.88887    292.95245    111.65042    58.482521    30.897202    29.425907    29.425907   -14.712954    16.184249   -14.712954    14.712954   -14.712954    14.712954            0            0            0 
     800    301.80323   -8080.4744    -70.14119   -466.89485    908.94674    750.50036   -456.63895    420.67757    312.37848    30.897202    29.425907    29.425907   -14.712954    16.184249   -14.712954    14.712954   -14.712954    14.712954            0            0            0 
    1000    308.17881   -8025.6776    386.41286   -109.19428    -514.1643   -408.79565    45.585222    336.27556   -33.757047    30.897202    29.425907    29.425907   -14.712954    16.184249   -14.712954    14.712954   -14.712954    14.712954            0            0            0 
    1200    303.86002   -8082.2342   -454.53241    27.953557   -142.03917   -1280.5977   -173.41894   -279.04304     201.5041    30.897202    29.425907    29.425907   -14.712954    16.184249   -14.712954    14.712954   -14.712954    14.712954            0            0            0 
    1400    301.94937   -8004.6885   -1012.9669   -586.64198   -955.71104   -90.755758    99.500617    161.60995    382.43916    30.897202    29.425907    29.425907   -14.712954    16.184249   -14.712954    14.712954   -14.712954    14.712954            0            0            0 
    1600     303.2162    -7956.132   -134.61552   -1435.5996    -824.1314   -803.27338    200.83314    380.06951   -578.60596    30.897202    29.425907    29.425907   -14.712954    16.184249   -14.712954    14.712954   -14.712954    14.712954            0            0            0 
    1800    297.60261   -8008.2494   -1575.9449   -741.98484   -944.74404   -1346.3728    354.73885   -643.83501    317.54857    30.897202    29.425907    29.425907   -14.712954    16.184249   -14.712954    14.712954   -14.712954    14.712954            0            0            0 
    2000    299.78039   -7966.9119   -176.30155   -994.22635   -524.06247    69.464521   -264.57394    342.20508   -124.45761    30.897202    29.425907    29.425907   -14.712954    16.184249   -14.712954    14.712954   -14.712954    14.712954            0            0            0 
Loop time of 32.1768 on 4 procs for 2000 steps with 2565 atoms

Performance: 5.370 ns/day, 4.469 hours/ns, 62.157 timesteps/s
97.6% CPU use with 4 MPI tasks x no OpenMP threads

MPI task timing breakdown:
Section |  min time  |  avg time  |  max time  |%varavg| %total
---------------------------------------------------------------
Pair    | 13.675     | 14.017     | 14.696     |  10.8 | 43.56
Bond    | 0.064965   | 0.067763   | 0.071491   |   1.0 |  0.21
Kspace  | 5.5849     | 6.2223     | 6.5468     |  15.3 | 19.34
Neigh   | 11.077     | 11.078     | 11.079     |   0.0 | 34.43
Comm    | 0.63204    | 0.67238    | 0.69102    |   2.9 |  2.09
Output  | 0.00035479 | 0.00041668 | 0.00059976 |   0.0 |  0.00
Modify  | 0.064623   | 0.06568    | 0.066852   |   0.4 |  0.20
Other   |            | 0.05325    |            |       |  0.17

Nlocal:    641.25 ave 656 max 630 min
Histogram: 1 0 1 0 0 1 0 0 0 1
Nghost:    8445.5 ave 8480 max 8408 min
Histogram: 1 0 1 0 0 0 0 0 1 1
Neighs:    282550 ave 290887 max 275883 min
Histogram: 1 0 0 1 1 0 0 0 0 1

Total # of neighbors = 1130200
Ave neighs/atom = 440.624
Ave special neighs/atom = 2
Neighbor list builds = 222
Dangerous builds = 0

# Obtain new stress tensor

variable tmp equal pe
variable e1 equal ${tmp}
variable e1 equal -7966.91189179396
variable tmp equal press
variable p1 equal ${tmp}
variable p1 equal -176.301554646821
variable tmp equal pxx
variable pxx1 equal ${tmp}
variable pxx1 equal -1571.11838658609
variable tmp equal pyy
variable pyy1 equal ${tmp}
variable pyy1 equal 882.345932065715
variable tmp equal pzz
variable pzz1 equal ${tmp}
variable pzz1 equal 159.867790579907
variable tmp equal pxy
variable pxy1 equal ${tmp}
variable pxy1 equal 381.677768905387
variable tmp equal pxz
variable pxz1 equal ${tmp}
variable pxz1 equal 48.4343387465275
variable tmp equal pyz
variable pyz1 equal ${tmp}
variable pyz1 equal 1261.23435122579

# Compute elastic constant from pressure tensor

variable C1pos equal ${d1}
variable C1pos equal 6.67651626616526
variable C2pos equal ${d2}
variable C2pos equal 0.24516846472479
variable C3pos equal ${d3}
variable C3pos equal 1.57118107243872
variable C4pos equal ${d4}
variable C4pos equal -2.10664753584633
variable C5pos equal ${d5}
variable C5pos equal 0.761533828301393
variable C6pos equal ${d6}
variable C6pos equal -0.607184380788704

# Combine positive and negative

variable C1${dir} equal 0.5*(${C1neg}+${C1pos})
variable C11 equal 0.5*(${C1neg}+${C1pos})
variable C11 equal 0.5*(-4.59476086778635+${C1pos})
variable C11 equal 0.5*(-4.59476086778635+6.67651626616526)
variable C2${dir} equal 0.5*(${C2neg}+${C2pos})
variable C21 equal 0.5*(${C2neg}+${C2pos})
variable C21 equal 0.5*(-4.86887689256748+${C2pos})
variable C21 equal 0.5*(-4.86887689256748+0.24516846472479)
variable C3${dir} equal 0.5*(${C3neg}+${C3pos})
variable C31 equal 0.5*(${C3neg}+${C3pos})
variable C31 equal 0.5*(-1.48628001339118+${C3pos})
variable C31 equal 0.5*(-1.48628001339118+1.57118107243872)
variable C4${dir} equal 0.5*(${C4neg}+${C4pos})
variable C41 equal 0.5*(${C4neg}+${C4pos})
variable C41 equal 0.5*(-1.24527857578626+${C4pos})
variable C41 equal 0.5*(-1.24527857578626+-2.10664753584633)
variable C5${dir} equal 0.5*(${C5neg}+${C5pos})
variable C51 equal 0.5*(${C5neg}+${C5pos})
variable C51 equal 0.5*(-0.620026506485458+${C5pos})
variable C51 equal 0.5*(-0.620026506485458+0.761533828301393)
variable C6${dir} equal 0.5*(${C6neg}+${C6pos})
variable C61 equal 0.5*(${C6neg}+${C6pos})
variable C61 equal 0.5*(1.03108334961494+${C6pos})
variable C61 equal 0.5*(1.03108334961494+-0.607184380788704)

# Delete dir to make sure it is not reused

variable dir delete

# uyy Perturbation

variable dir equal 2
include displace.mod
# NOTE: This script should not need to be
# modified. See in.elastic for more info.
#
# Find which reference length to use

if "${dir} == 1" then    "variable len0 equal ${lx0}"
if "${dir} == 2" then    "variable len0 equal ${ly0}"
variable len0 equal ${ly0}
variable len0 equal 29.4259070715506
if "${dir} == 3" then    "variable len0 equal ${lz0}"
if "${dir} == 4" then    "variable len0 equal ${lz0}"
if "${dir} == 5" then    "variable len0 equal ${lz0}"
if "${dir} == 6" then    "variable len0 equal ${ly0}"

# Reset box and simulation parameters

clear
box tilt large
read_restart restart.equil
  restoring atom style full from restart
  triclinic box = (-14.713 -14.713 -14.713) to (14.713 14.713 14.713) with tilt (0 0 0)
  1 by 2 by 2 MPI processor grid
Switching to CHARMM coulomb energy conversion constant (src/KSPACE/pair_lj_charmmfsw_coul_long.cpp:67)
  restoring pair style lj/charmmfsw/coul/long from restart
  restoring bond style harmonic from restart
  restoring angle style charmm from restart
  restoring dihedral style charmmfsw from restart
  restoring improper style harmonic from restart
  2565 atoms
  1710 bonds
  855 angles
  2 = max # of 1-2 neighbors
  1 = max # of 1-3 neighbors
  1 = max # of 1-4 neighbors
  2 = max # of special neighbors
  special bonds CPU = 0.000263751 secs
  read_restart CPU = 0.0010752 secs
include potential.mod
# NOTE: This script can be modified for different pair styles
# See in.elastic for more info.

reset_timestep 0


# Setup neighbor style
neighbor 1.0 nsq
neigh_modify once no every 1 delay 0 check yes

# Setup output

fix avp all ave/time  ${nevery} ${nrepeat} ${nfreq} c_thermo_press mode vector
fix avp all ave/time  20 ${nrepeat} ${nfreq} c_thermo_press mode vector
fix avp all ave/time  20 10 ${nfreq} c_thermo_press mode vector
fix avp all ave/time  20 10 200 c_thermo_press mode vector
thermo		${nthermo}
thermo		200

thermo_style custom step temp pe press f_avp[1] f_avp[2] f_avp[3] f_avp[4] f_avp[5] f_avp[6] lx ly lz xlo xhi ylo yhi zlo zhi xy xz yz
thermo_modify norm no




# Setup MD

timestep ${timestep}
timestep 1
fix 4 all nvt temp 300.0 300.0 100
Resetting global fix info from restart file:
  fix style: nvt, fix ID: 4

kspace_style    pppm 1e-6



# Negative deformation

variable delta equal -${up}*${len0}
variable delta equal -0.05*${len0}
variable delta equal -0.05*29.4259070715506
variable deltaxy equal -${up}*xy
variable deltaxy equal -0.05*xy
variable deltaxz equal -${up}*xz
variable deltaxz equal -0.05*xz
variable deltayz equal -${up}*yz
variable deltayz equal -0.05*yz
if "${dir} == 1" then    "change_box all x delta 0 ${delta} xy delta ${deltaxy} xz delta ${deltaxz} remap units box"
if "${dir} == 2" then    "change_box all y delta 0 ${delta} yz delta ${deltayz} remap units box"
change_box all y delta 0 ${delta} yz delta ${deltayz} remap units box
change_box all y delta 0 -1.47129535357753 yz delta ${deltayz} remap units box
change_box all y delta 0 -1.47129535357753 yz delta -0 remap units box
  triclinic box = (-14.713 -14.713 -14.713) to (14.713 13.2417 14.713) with tilt (0 0 0)
  triclinic box = (-14.713 -14.713 -14.713) to (14.713 13.2417 14.713) with tilt (0 0 0)
if "${dir} == 3" then    "change_box all z delta 0 ${delta} remap units box"
if "${dir} == 4" then    "change_box all yz delta ${delta} remap units box"
if "${dir} == 5" then    "change_box all xz delta ${delta} remap units box"
if "${dir} == 6" then    "change_box all xy delta ${delta} remap units box"

# Run MD

run ${nequil}
run 4000
PPPM initialization ...
  using 12-bit tables for long-range coulomb (src/kspace.cpp:323)
  G vector (1/distance) = 0.285003
  grid = 36 36 36
  stencil order = 5
  estimated absolute RMS force accuracy = 0.000255207
  estimated relative force accuracy = 7.6853e-07
  using double precision FFTW3
  3d grid and FFT values/proc = 26875 11664
All restart file global fix info was re-assigned
Neighbor list info ...
  update every 1 steps, delay 0 steps, check yes
  max neighbors/atom: 2000, page size: 100000
  master list distance cutoff = 13
  ghost atom cutoff = 13
  1 neighbor lists, perpetual/occasional/extra = 1 0 0
  (1) pair lj/charmmfsw/coul/long, perpetual
      attributes: half, newton on
      pair build: half/nsq/newton
      stencil: none
      bin: none
Per MPI rank memory allocation (min/avg/max) = 10.69 | 10.7 | 10.7 Mbytes
Step Temp PotEng Press f_avp[1] f_avp[2] f_avp[3] f_avp[4] f_avp[5] f_avp[6] Lx Ly Lz Xlo Xhi Ylo Yhi Zlo Zhi Xy Xz Yz 
       0    300.04885   -7521.0056    33116.752            0            0            0            0            0            0    29.425907    27.954612    29.425907   -14.712954    14.712954   -14.712954    13.241658   -14.712954    14.712954            0            0            0 
     200    297.55068   -7825.0841    20705.126    23444.489    25568.695    23802.253   -198.98412    58.420661    940.56814    29.425907    27.954612    29.425907   -14.712954    14.712954   -14.712954    13.241658   -14.712954    14.712954            0            0            0 
     400    294.50801   -8069.4795    17600.609    19378.019     19088.81    19080.066    242.28296     237.4647   -246.85786    29.425907    27.954612    29.425907   -14.712954    14.712954   -14.712954    13.241658   -14.712954    14.712954            0            0            0 
     600    296.34835   -8225.0756    14521.324    17580.358     14778.69    16561.324    176.52315   -188.08825   -141.55186    29.425907    27.954612    29.425907   -14.712954    14.712954   -14.712954    13.241658   -14.712954    14.712954            0            0            0 
     800    299.06559   -8156.9562    12542.877    12553.721     14243.66     13022.56   -115.14591   -165.58265    205.17662    29.425907    27.954612    29.425907   -14.712954    14.712954   -14.712954    13.241658   -14.712954    14.712954            0            0            0 
    1000     294.6276   -8058.0438    10789.815    11456.783    11403.074    10792.311    637.47575    797.31838      61.6283    29.425907    27.954612    29.425907   -14.712954    14.712954   -14.712954    13.241658   -14.712954    14.712954            0            0            0 
    1200    305.48994   -8209.0366    8207.0969    9334.3994    9809.2013    9935.3332   -1034.5623   -691.24011    555.39583    29.425907    27.954612    29.425907   -14.712954    14.712954   -14.712954    13.241658   -14.712954    14.712954            0            0            0 
    1400    291.55684    -8153.485    6281.9363    7484.2094    6920.2005    6970.9105    207.06395     -304.379   -123.32345    29.425907    27.954612    29.425907   -14.712954    14.712954   -14.712954    13.241658   -14.712954    14.712954            0            0            0 
    1600      306.911   -8153.6238    4433.9637    5980.5394    6070.6871    5004.6912   -1223.0834    587.34117    -688.9227    29.425907    27.954612    29.425907   -14.712954    14.712954   -14.712954    13.241658   -14.712954    14.712954            0            0            0 
    1800     293.7255   -8122.6385     3110.984    3375.1245    4077.7359    4125.4919   -255.73743   -399.59219    639.80602    29.425907    27.954612    29.425907   -14.712954    14.712954   -14.712954    13.241658   -14.712954    14.712954            0            0            0 
    2000    292.86248   -8186.1179    2809.9525    3546.4278    2857.0812    2205.1195    354.95972    969.67762   -175.62584    29.425907    27.954612    29.425907   -14.712954    14.712954   -14.712954    13.241658   -14.712954    14.712954            0            0            0 
    2200       305.25   -8190.7284    2401.3257      1760.38    2850.3804    3252.0667    350.26871   -9.2620347    8.4853121    29.425907    27.954612    29.425907   -14.712954    14.712954   -14.712954    13.241658   -14.712954    14.712954            0            0            0 
    2400    303.09764   -8186.1339    2223.6232    4144.0909    1713.9503    2128.7746   -477.24899   -1446.9805    1.4980098    29.425907    27.954612    29.425907   -14.712954    14.712954   -14.712954    13.241658   -14.712954    14.712954            0            0            0 
    2600    292.50933   -8196.5315    1995.4237    1495.7098    1370.6552    1874.3158    656.42921   -247.80948   -199.19235    29.425907    27.954612    29.425907   -14.712954    14.712954   -14.712954    13.241658   -14.712954    14.712954            0            0            0 
    2800    298.78482   -8186.1363    1192.3598    1088.7849    2224.6787     1329.651   -217.72512   -107.80184   -81.017671    29.425907    27.954612    29.425907   -14.712954    14.712954   -14.712954    13.241658   -14.712954    14.712954            0            0            0 
    3000    301.86698   -8257.5484    922.55247    871.96809    435.62296    1800.7563   -698.74297    193.95591    270.67346    29.425907    27.954612    29.425907   -14.712954    14.712954   -14.712954    13.241658   -14.712954    14.712954            0            0            0 
    3200    300.12216   -8307.7211    1023.2845    1057.8711    1728.5701    1011.8641   -54.388646   -297.51316    503.52947    29.425907    27.954612    29.425907   -14.712954    14.712954   -14.712954    13.241658   -14.712954    14.712954            0            0            0 
    3400     288.1711   -8092.8433    6.2804341   -185.00217    564.72271    330.30957    185.31231   -188.42423   -457.03452    29.425907    27.954612    29.425907   -14.712954    14.712954   -14.712954    13.241658   -14.712954    14.712954            0            0            0 
    3600    310.55693   -8245.8929    235.07238   -38.659358   -181.83325    1592.9202     559.4508    511.26353     44.97325    29.425907    27.954612    29.425907   -14.712954    14.712954   -14.712954    13.241658   -14.712954    14.712954            0            0            0 
    3800     300.3684   -8266.0362    293.95985   -576.42558   -899.49104    667.10644   -177.54664   -349.38803   -41.530705    29.425907    27.954612    29.425907   -14.712954    14.712954   -14.712954    13.241658   -14.712954    14.712954            0            0            0 
    4000    296.45457   -8171.3415    286.78059   -667.18214    241.05278    723.74678   -33.367722    475.12822    121.64812    29.425907    27.954612    29.425907   -14.712954    14.712954   -14.712954    13.241658   -14.712954    14.712954            0            0            0 
Loop time of 70.0102 on 4 procs for 4000 steps with 2565 atoms

Performance: 4.936 ns/day, 4.862 hours/ns, 57.134 timesteps/s
97.7% CPU use with 4 MPI tasks x no OpenMP threads

MPI task timing breakdown:
Section |  min time  |  avg time  |  max time  |%varavg| %total
---------------------------------------------------------------
Pair    | 29.309     | 31.085     | 31.8       |  18.5 | 44.40
Bond    | 0.13234    | 0.13692    | 0.13919    |   0.7 |  0.20
Kspace  | 12.562     | 13.248     | 14.966     |  27.4 | 18.92
Neigh   | 23.853     | 23.854     | 23.854     |   0.0 | 34.07
Comm    | 1.4134     | 1.4423     | 1.4986     |   2.8 |  2.06
Output  | 0.00074183 | 0.00089052 | 0.0013222  |   0.0 |  0.00
Modify  | 0.13028    | 0.13103    | 0.13152    |   0.1 |  0.19
Other   |            | 0.1119     |            |       |  0.16

Nlocal:    641.25 ave 659 max 626 min
Histogram: 1 1 0 0 0 0 0 1 0 1
Nghost:    8896.25 ave 8975 max 8814 min
Histogram: 1 0 1 0 0 0 0 1 0 1
Neighs:    312324 ave 323186 max 303471 min
Histogram: 2 0 0 0 0 0 0 1 0 1

Total # of neighbors = 1249297
Ave neighs/atom = 487.055
Ave special neighs/atom = 2
Neighbor list builds = 446
Dangerous builds = 0
include potential.mod
# NOTE: This script can be modified for different pair styles
# See in.elastic for more info.

reset_timestep 0


# Setup neighbor style
neighbor 1.0 nsq
neigh_modify once no every 1 delay 0 check yes

# Setup output

fix avp all ave/time  ${nevery} ${nrepeat} ${nfreq} c_thermo_press mode vector
fix avp all ave/time  20 ${nrepeat} ${nfreq} c_thermo_press mode vector
fix avp all ave/time  20 10 ${nfreq} c_thermo_press mode vector
fix avp all ave/time  20 10 200 c_thermo_press mode vector
thermo		${nthermo}
thermo		200

thermo_style custom step temp pe press f_avp[1] f_avp[2] f_avp[3] f_avp[4] f_avp[5] f_avp[6] lx ly lz xlo xhi ylo yhi zlo zhi xy xz yz
WARNING: New thermo_style command, previous thermo_modify settings will be lost (src/output.cpp:708)
thermo_modify norm no




# Setup MD

timestep ${timestep}
timestep 1
fix 4 all nvt temp 300.0 300.0 100

kspace_style    pppm 1e-6


run ${nrun}
run 2000
PPPM initialization ...
  using 12-bit tables for long-range coulomb (src/kspace.cpp:323)
  G vector (1/distance) = 0.285003
  grid = 36 36 36
  stencil order = 5
  estimated absolute RMS force accuracy = 0.000255207
  estimated relative force accuracy = 7.6853e-07
  using double precision FFTW3
  3d grid and FFT values/proc = 26875 11664
Per MPI rank memory allocation (min/avg/max) = 10.69 | 10.7 | 10.7 Mbytes
Step Temp PotEng Press f_avp[1] f_avp[2] f_avp[3] f_avp[4] f_avp[5] f_avp[6] Lx Ly Lz Xlo Xhi Ylo Yhi Zlo Zhi Xy Xz Yz 
       0    296.45457   -8171.3415    286.78059            0            0            0            0            0            0    29.425907    27.954612    29.425907   -14.712954    14.712954   -14.712954    13.241658   -14.712954    14.712954            0            0            0 
     200    294.26569    -8214.085   -392.81123   -115.44109   -1243.3455    354.96405   -159.52429    42.574902    122.37533    29.425907    27.954612    29.425907   -14.712954    14.712954   -14.712954    13.241658   -14.712954    14.712954            0            0            0 
     400     294.8775   -8247.9533   -999.30649   -1637.6767   -122.70534   -1179.1068   -65.174081    558.67648   -1010.0587    29.425907    27.954612    29.425907   -14.712954    14.712954   -14.712954    13.241658   -14.712954    14.712954            0            0            0 
     600    304.35605   -8204.5819   -686.67834   -967.14188   -2008.7537   -538.42757    98.818788    396.08388    52.085379    29.425907    27.954612    29.425907   -14.712954    14.712954   -14.712954    13.241658   -14.712954    14.712954            0            0            0 
     800     301.2344   -8167.0772   -1167.7521   -885.28425   -943.40755    -489.5209   -888.02808    338.48799   -312.12392    29.425907    27.954612    29.425907   -14.712954    14.712954   -14.712954    13.241658   -14.712954    14.712954            0            0            0 
    1000    294.83061    -8104.788   -1201.8029   -31.918408   -854.66726   -1154.5876   -181.75361   -410.90068   -325.70434    29.425907    27.954612    29.425907   -14.712954    14.712954   -14.712954    13.241658   -14.712954    14.712954            0            0            0 
    1200    301.31431   -8237.0581   -1293.4872   -1647.5764   -560.74344   -573.17621   -801.37689   -82.537586    682.94124    29.425907    27.954612    29.425907   -14.712954    14.712954   -14.712954    13.241658   -14.712954    14.712954            0            0            0 
    1400    311.28322   -8165.2549   -869.38161   -832.73235   -1114.1624   -469.85825    903.67034   -401.04578   -359.00904    29.425907    27.954612    29.425907   -14.712954    14.712954   -14.712954    13.241658   -14.712954    14.712954            0            0            0 
    1600    297.41519   -8169.0063   -838.68576   -718.58067     -1507.81    58.112471   -682.70593   -309.29743    483.62671    29.425907    27.954612    29.425907   -14.712954    14.712954   -14.712954    13.241658   -14.712954    14.712954            0            0            0 
    1800    295.94375   -8169.7036   -410.52649    59.347691   -250.85424    -1122.414   -113.21627   -299.40428    141.24365    29.425907    27.954612    29.425907   -14.712954    14.712954   -14.712954    13.241658   -14.712954    14.712954            0            0            0 
    2000    302.51933   -8100.1894    615.34368   -697.65418    228.51262   -17.837599    212.69743    370.31567   -95.393056    29.425907    27.954612    29.425907   -14.712954    14.712954   -14.712954    13.241658   -14.712954    14.712954            0            0            0 
Loop time of 36.7894 on 4 procs for 2000 steps with 2565 atoms

Performance: 4.697 ns/day, 5.110 hours/ns, 54.363 timesteps/s
97.6% CPU use with 4 MPI tasks x no OpenMP threads

MPI task timing breakdown:
Section |  min time  |  avg time  |  max time  |%varavg| %total
---------------------------------------------------------------
Pair    | 15.18      | 16.219     | 17.23      |  18.0 | 44.09
Bond    | 0.071346   | 0.072064   | 0.073259   |   0.3 |  0.20
Kspace  | 6.3477     | 7.3304     | 8.3414     |  26.0 | 19.93
Neigh   | 12.313     | 12.314     | 12.315     |   0.0 | 33.47
Comm    | 0.70249    | 0.73085    | 0.75868    |   2.4 |  1.99
Output  | 0.00036825 | 0.00044454 | 0.00065251 |   0.0 |  0.00
Modify  | 0.067008   | 0.067646   | 0.068302   |   0.2 |  0.18
Other   |            | 0.0554     |            |       |  0.15

Nlocal:    641.25 ave 655 max 625 min
Histogram: 1 0 0 0 1 0 0 1 0 1
Nghost:    8963.75 ave 9045 max 8894 min
Histogram: 1 1 0 0 0 0 1 0 0 1
Neighs:    312432 ave 321243 max 303265 min
Histogram: 1 0 0 1 0 0 1 0 0 1

Total # of neighbors = 1249727
Ave neighs/atom = 487.223
Ave special neighs/atom = 2
Neighbor list builds = 225
Dangerous builds = 0

# Obtain new stress tensor

variable pxx1 equal f_avp[1]
variable pyy1 equal f_avp[2]
variable pzz1 equal f_avp[3]
variable pxy1 equal f_avp[4]
variable pxz1 equal f_avp[5]
variable pyz1 equal f_avp[6]

# Compute elastic constant from pressure tensor

variable C1neg equal ${d1}
variable C1neg equal -4.92958785156634
variable C2neg equal ${d2}
variable C2neg equal -1.55283507910931
variable C3neg equal ${d3}
variable C3neg equal -1.92659185186399
variable C4neg equal ${d4}
variable C4neg equal -0.606607278757968
variable C5neg equal ${d5}
variable C5neg equal -0.117771168780708
variable C6neg equal ${d6}
variable C6neg equal 0.269223705185364

# Reset box and simulation parameters

clear
box tilt large
read_restart restart.equil
  restoring atom style full from restart
  triclinic box = (-14.713 -14.713 -14.713) to (14.713 14.713 14.713) with tilt (0 0 0)
  1 by 2 by 2 MPI processor grid
Switching to CHARMM coulomb energy conversion constant (src/KSPACE/pair_lj_charmmfsw_coul_long.cpp:67)
  restoring pair style lj/charmmfsw/coul/long from restart
  restoring bond style harmonic from restart
  restoring angle style charmm from restart
  restoring dihedral style charmmfsw from restart
  restoring improper style harmonic from restart
  2565 atoms
  1710 bonds
  855 angles
  2 = max # of 1-2 neighbors
  1 = max # of 1-3 neighbors
  1 = max # of 1-4 neighbors
  2 = max # of special neighbors
  special bonds CPU = 0.000263105 secs
  read_restart CPU = 0.00105358 secs
include potential.mod
# NOTE: This script can be modified for different pair styles
# See in.elastic for more info.

reset_timestep 0


# Setup neighbor style
neighbor 1.0 nsq
neigh_modify once no every 1 delay 0 check yes

# Setup output

fix avp all ave/time  ${nevery} ${nrepeat} ${nfreq} c_thermo_press mode vector
fix avp all ave/time  20 ${nrepeat} ${nfreq} c_thermo_press mode vector
fix avp all ave/time  20 10 ${nfreq} c_thermo_press mode vector
fix avp all ave/time  20 10 200 c_thermo_press mode vector
thermo		${nthermo}
thermo		200

thermo_style custom step temp pe press f_avp[1] f_avp[2] f_avp[3] f_avp[4] f_avp[5] f_avp[6] lx ly lz xlo xhi ylo yhi zlo zhi xy xz yz
thermo_modify norm no




# Setup MD

timestep ${timestep}
timestep 1
fix 4 all nvt temp 300.0 300.0 100
Resetting global fix info from restart file:
  fix style: nvt, fix ID: 4

kspace_style    pppm 1e-6



# Positive deformation

variable delta equal ${up}*${len0}
variable delta equal 0.05*${len0}
variable delta equal 0.05*29.4259070715506
variable deltaxy equal ${up}*xy
variable deltaxy equal 0.05*xy
variable deltaxz equal ${up}*xz
variable deltaxz equal 0.05*xz
variable deltayz equal ${up}*yz
variable deltayz equal 0.05*yz
if "${dir} == 1" then    "change_box all x delta 0 ${delta} xy delta ${deltaxy} xz delta ${deltaxz} remap units box"
if "${dir} == 2" then    "change_box all y delta 0 ${delta} yz delta ${deltayz} remap units box"
change_box all y delta 0 ${delta} yz delta ${deltayz} remap units box
change_box all y delta 0 1.47129535357753 yz delta ${deltayz} remap units box
change_box all y delta 0 1.47129535357753 yz delta 0 remap units box
  triclinic box = (-14.713 -14.713 -14.713) to (14.713 16.1842 14.713) with tilt (0 0 0)
  triclinic box = (-14.713 -14.713 -14.713) to (14.713 16.1842 14.713) with tilt (0 0 0)
if "${dir} == 3" then    "change_box all z delta 0 ${delta} remap units box"
if "${dir} == 4" then    "change_box all yz delta ${delta} remap units box"
[...]
    2200    295.62589    -8010.819   -2011.7865   -1849.8608   -1788.8572    -2710.306   -600.64962    114.11868   -168.96767    29.425907    29.425907    29.425907   -14.712954    14.712954   -14.712954    14.712954   -14.712954    14.712954    1.4712954            0            0 
    2400    309.18346   -8076.8491   -1973.2769   -1543.4873   -2572.9817   -1261.9979     215.0141   -121.73094   -655.51211    29.425907    29.425907    29.425907   -14.712954    14.712954   -14.712954    14.712954   -14.712954    14.712954    1.4712954            0            0 
    2600    295.67774   -8033.1518   -2166.7613   -1934.1233   -1969.8996   -2816.2212    113.25314   -97.429774    582.33018    29.425907    29.425907    29.425907   -14.712954    14.712954   -14.712954    14.712954   -14.712954    14.712954    1.4712954            0            0 
    2800     302.6266   -8037.2158   -2330.6261   -1782.7292   -2256.1831   -2120.3364    440.81607    11.658051    634.90449    29.425907    29.425907    29.425907   -14.712954    14.712954   -14.712954    14.712954   -14.712954    14.712954    1.4712954            0            0 
    3000    308.61681   -8022.8579   -929.38792   -1729.5419   -2180.1999   -1532.1732    199.34271   -39.401455    404.04627    29.425907    29.425907    29.425907   -14.712954    14.712954   -14.712954    14.712954   -14.712954    14.712954    1.4712954            0            0 
    3200    298.28545   -8083.3107   -2004.2829   -1979.4693   -1734.6035   -1716.4681    96.347125   -303.12919   -536.21524    29.425907    29.425907    29.425907   -14.712954    14.712954   -14.712954    14.712954   -14.712954    14.712954    1.4712954            0            0 
    3400    300.24635    -8105.401   -1460.0836   -516.93382    -1410.516   -2523.4388    289.58675   -47.225717   -584.51615    29.425907    29.425907    29.425907   -14.712954    14.712954   -14.712954    14.712954   -14.712954    14.712954    1.4712954            0            0 
    3600    303.84026   -8019.5352   -950.35188   -1360.4643   -1972.4299   -1275.8513    63.224972    148.57092    300.93957    29.425907    29.425907    29.425907   -14.712954    14.712954   -14.712954    14.712954   -14.712954    14.712954    1.4712954            0            0 
    3800    294.68829   -8046.7354   -1256.7097   -1183.3485    -1146.396   -1989.2399   -256.98822    -744.1009    210.70842    29.425907    29.425907    29.425907   -14.712954    14.712954   -14.712954    14.712954   -14.712954    14.712954    1.4712954            0            0 
    4000    296.08091   -8058.0633   -556.38363   -2103.7736   -174.89045   -70.836803    601.28686    141.80637    145.23915    29.425907    29.425907    29.425907   -14.712954    14.712954   -14.712954    14.712954   -14.712954    14.712954    1.4712954            0            0 
Loop time of 68.6074 on 4 procs for 4000 steps with 2565 atoms

Performance: 5.037 ns/day, 4.764 hours/ns, 58.303 timesteps/s
97.6% CPU use with 4 MPI tasks x no OpenMP threads

MPI task timing breakdown:
Section |  min time  |  avg time  |  max time  |%varavg| %total
---------------------------------------------------------------
Pair    | 29.186     | 29.652     | 30.447     |   8.7 | 43.22
Bond    | 0.13452    | 0.13781    | 0.14171    |   0.9 |  0.20
Kspace  | 12.758     | 13.509     | 13.96      |  12.3 | 19.69
Neigh   | 23.668     | 23.67      | 23.672     |   0.0 | 34.50
Comm    | 1.3558     | 1.3998     | 1.4338     |   2.4 |  2.04
Output  | 0.00070752 | 0.00083968 | 0.0012286  |   0.0 |  0.00
Modify  | 0.12896    | 0.13021    | 0.13089    |   0.2 |  0.19
Other   |            | 0.1077     |            |       |  0.16

Nlocal:    641.25 ave 661 max 624 min
Histogram: 2 0 0 0 0 0 0 1 0 1
Nghost:    8617.5 ave 8729 max 8526 min
Histogram: 1 1 0 0 0 0 1 0 0 1
Neighs:    296827 ave 309137 max 286703 min
Histogram: 2 0 0 0 0 0 0 1 0 1

Total # of neighbors = 1187307
Ave neighs/atom = 462.888
Ave special neighs/atom = 2
Neighbor list builds = 455
Dangerous builds = 0
include potential.mod
# NOTE: This script can be modified for different pair styles
# See in.elastic for more info.

reset_timestep 0


# Setup neighbor style
neighbor 1.0 nsq
neigh_modify once no every 1 delay 0 check yes

# Setup output

fix avp all ave/time  ${nevery} ${nrepeat} ${nfreq} c_thermo_press mode vector
fix avp all ave/time  20 ${nrepeat} ${nfreq} c_thermo_press mode vector
fix avp all ave/time  20 10 ${nfreq} c_thermo_press mode vector
fix avp all ave/time  20 10 200 c_thermo_press mode vector
thermo		${nthermo}
thermo		200

thermo_style custom step temp pe press f_avp[1] f_avp[2] f_avp[3] f_avp[4] f_avp[5] f_avp[6] lx ly lz xlo xhi ylo yhi zlo zhi xy xz yz
WARNING: New thermo_style command, previous thermo_modify settings will be lost (src/output.cpp:708)
thermo_modify norm no




# Setup MD

timestep ${timestep}
timestep 1
fix 4 all nvt temp 300.0 300.0 100

kspace_style    pppm 1e-6


run ${nrun}
run 2000
PPPM initialization ...
  using 12-bit tables for long-range coulomb (src/kspace.cpp:323)
  G vector (1/distance) = 0.283106
  grid = 36 36 36
  stencil order = 5
  estimated absolute RMS force accuracy = 0.000290941
  estimated relative force accuracy = 8.76139e-07
  using double precision FFTW3
  3d grid and FFT values/proc = 26875 11664
Per MPI rank memory allocation (min/avg/max) = 10.67 | 10.68 | 10.68 Mbytes
Step Temp PotEng Press f_avp[1] f_avp[2] f_avp[3] f_avp[4] f_avp[5] f_avp[6] Lx Ly Lz Xlo Xhi Ylo Yhi Zlo Zhi Xy Xz Yz 
       0    296.08091   -8058.0633   -556.38363            0            0            0            0            0            0    29.425907    29.425907    29.425907   -14.712954    14.712954   -14.712954    14.712954   -14.712954    14.712954    1.4712954            0            0 
     200    307.18452   -8034.3544    695.17949    52.133559   -311.85698    542.47143   -162.14352   -301.71206   -883.61543    29.425907    29.425907    29.425907   -14.712954    14.712954   -14.712954    14.712954   -14.712954    14.712954    1.4712954            0            0 
     400    301.01678   -8027.9838   -689.90475   -307.11662    165.68279   -592.16791    32.656254    95.747392     388.7062    29.425907    29.425907    29.425907   -14.712954    14.712954   -14.712954    14.712954   -14.712954    14.712954    1.4712954            0            0 
     600     289.9156   -8019.6983    -997.0246   -442.25751    -1541.776    747.78736    16.027298    87.639774   -191.69665    29.425907    29.425907    29.425907   -14.712954    14.712954   -14.712954    14.712954   -14.712954    14.712954    1.4712954            0            0 
     800    305.77484   -8032.9333   -671.03917    -794.4442   -847.17099   -1099.1209   -365.89044    182.30373    396.17503    29.425907    29.425907    29.425907   -14.712954    14.712954   -14.712954    14.712954   -14.712954    14.712954    1.4712954            0            0 
    1000     306.6913   -8068.2056   -315.26218     -138.684   -1337.9931   -34.341824   -390.27121   -313.17693   -21.222849    29.425907    29.425907    29.425907   -14.712954    14.712954   -14.712954    14.712954   -14.712954    14.712954    1.4712954            0            0 
    1200    307.15786   -8144.4526    548.68627    578.11616    744.44532    998.55449   -151.25695    614.98377    28.629929    29.425907    29.425907    29.425907   -14.712954    14.712954   -14.712954    14.712954   -14.712954    14.712954    1.4712954            0            0 
    1400    296.66101   -8051.2183     1101.079    1065.9379    1466.5043   -731.01521   -493.34126    33.409301    160.19086    29.425907    29.425907    29.425907   -14.712954    14.712954   -14.712954    14.712954   -14.712954    14.712954    1.4712954            0            0 
    1600    294.73452   -8113.7269    1712.8935    1254.3009     1761.041    2533.9516  -0.10707386    -414.7706   -331.43659    29.425907    29.425907    29.425907   -14.712954    14.712954   -14.712954    14.712954   -14.712954    14.712954    1.4712954            0            0 
    1800    297.51586   -8052.4402    2270.9149     1867.894    1867.7048    1839.4179    80.680217    503.78461    -385.4752    29.425907    29.425907    29.425907   -14.712954    14.712954   -14.712954    14.712954   -14.712954    14.712954    1.4712954            0            0 
    2000    301.88133   -8025.6408    2036.3324    2577.4712    1414.6969    2004.1579    166.14347     5.482216   -166.43572    29.425907    29.425907    29.425907   -14.712954    14.712954   -14.712954    14.712954   -14.712954    14.712954    1.4712954            0            0 
Loop time of 32.8854 on 4 procs for 2000 steps with 2565 atoms

Performance: 5.255 ns/day, 4.567 hours/ns, 60.817 timesteps/s
97.6% CPU use with 4 MPI tasks x no OpenMP threads

MPI task timing breakdown:
Section |  min time  |  avg time  |  max time  |%varavg| %total
---------------------------------------------------------------
Pair    | 13.696     | 14.283     | 14.805     |  10.7 | 43.43
Bond    | 0.064398   | 0.066228   | 0.067591   |   0.5 |  0.20
Kspace  | 5.6023     | 6.1035     | 6.6791     |  15.9 | 18.56
Neigh   | 11.644     | 11.646     | 11.647     |   0.0 | 35.41
Comm    | 0.64608    | 0.66865    | 0.68413    |   1.9 |  2.03
Output  | 0.00035068 | 0.00041685 | 0.00061414 |   0.0 |  0.00
Modify  | 0.063178   | 0.064075   | 0.064673   |   0.2 |  0.19
Other   |            | 0.05388    |            |       |  0.16

Nlocal:    641.25 ave 662 max 620 min
Histogram: 1 0 1 0 0 0 0 1 0 1
Nghost:    8622.75 ave 8683 max 8561 min
Histogram: 2 0 0 0 0 0 0 0 0 2
Neighs:    296715 ave 306955 max 286162 min
Histogram: 1 0 1 0 0 0 0 1 0 1

Total # of neighbors = 1186859
Ave neighs/atom = 462.713
Ave special neighs/atom = 2
Neighbor list builds = 228
Dangerous builds = 0

# Obtain new stress tensor

variable tmp equal pe
variable e1 equal ${tmp}
variable e1 equal -8025.64076287131
variable tmp equal press
variable p1 equal ${tmp}
variable p1 equal 2036.33237278218
variable tmp equal pxx
variable pxx1 equal ${tmp}
variable pxx1 equal 2707.14218940859
variable tmp equal pyy
variable pyy1 equal ${tmp}
variable pyy1 equal 1834.48855084944
variable tmp equal pzz
variable pzz1 equal ${tmp}
variable pzz1 equal 1567.36637808852
variable tmp equal pxy
variable pxy1 equal ${tmp}
variable pxy1 equal 823.45508515641
variable tmp equal pxz
variable pxz1 equal ${tmp}
variable pxz1 equal 321.388192507337
variable tmp equal pyz
variable pyz1 equal ${tmp}
variable pyz1 equal -962.438733449593

# Compute elastic constant from pressure tensor

variable C1pos equal ${d1}
variable C1pos equal -1.8800048858241
variable C2pos equal ${d2}
variable C2pos equal -1.65911677284266
variable C3pos equal ${d3}
variable C3pos equal -1.2438161025785
variable C4pos equal ${d4}
variable C4pos equal 2.34069863350444
variable C5pos equal ${d5}
variable C5pos equal 0.215626120779774
variable C6pos equal ${d6}
variable C6pos equal -1.49073901329075

# Combine positive and negative

variable C1${dir} equal 0.5*(${C1neg}+${C1pos})
variable C16 equal 0.5*(${C1neg}+${C1pos})
variable C16 equal 0.5*(-6.2785515400465+${C1pos})
variable C16 equal 0.5*(-6.2785515400465+-1.8800048858241)
variable C2${dir} equal 0.5*(${C2neg}+${C2pos})
variable C26 equal 0.5*(${C2neg}+${C2pos})
variable C26 equal 0.5*(-6.1976498872769+${C2pos})
variable C26 equal 0.5*(-6.1976498872769+-1.65911677284266)
variable C3${dir} equal 0.5*(${C3neg}+${C3pos})
variable C36 equal 0.5*(${C3neg}+${C3pos})
variable C36 equal 0.5*(-5.19937106603008+${C3pos})
variable C36 equal 0.5*(-5.19937106603008+-1.2438161025785)
variable C4${dir} equal 0.5*(${C4neg}+${C4pos})
variable C46 equal 0.5*(${C4neg}+${C4pos})
variable C46 equal 0.5*(-0.89435932594766+${C4pos})
variable C46 equal 0.5*(-0.89435932594766+2.34069863350444)
variable C5${dir} equal 0.5*(${C5neg}+${C5pos})
variable C56 equal 0.5*(${C5neg}+${C5pos})
variable C56 equal 0.5*(-0.69910133033047+${C5pos})
variable C56 equal 0.5*(-0.69910133033047+0.215626120779774)
variable C6${dir} equal 0.5*(${C6neg}+${C6pos})
variable C66 equal 0.5*(${C6neg}+${C6pos})
variable C66 equal 0.5*(0.679768373241986+${C6pos})
variable C66 equal 0.5*(0.679768373241986+-1.49073901329075)

# Delete dir to make sure it is not reused

variable dir delete

# Output final values

variable C11all equal ${C11}
variable C11all equal 1.04087769918945
variable C22all equal ${C22}
variable C22all equal 0.401265865263305
variable C33all equal ${C33}
variable C33all equal 2.53169438808038

variable C12all equal 0.5*(${C12}+${C21})
variable C12all equal 0.5*(-0.38888902187127+${C21})
variable C12all equal 0.5*(-0.38888902187127+-2.31185421392134)
variable C13all equal 0.5*(${C13}+${C31})
variable C13all equal 0.5*(1.54060206475603+${C31})
variable C13all equal 0.5*(1.54060206475603+0.04245052952377)
variable C23all equal 0.5*(${C23}+${C32})
variable C23all equal 0.5*(2.91455815980703+${C32})
variable C23all equal 0.5*(2.91455815980703+0.0956516778828801)

variable C44all equal ${C44}
variable C44all equal -0.316876377303654
variable C55all equal ${C55}
variable C55all equal -1.08385538759994
variable C66all equal ${C66}
variable C66all equal -0.405485320024382

variable C14all equal 0.5*(${C14}+${C41})
variable C14all equal 0.5*(-1.12092584221007+${C41})
variable C14all equal 0.5*(-1.12092584221007+-1.6759630558163)
variable C15all equal 0.5*(${C15}+${C51})
variable C15all equal 0.5*(0.52604282337398+${C51})
variable C15all equal 0.5*(0.52604282337398+0.0707536609079675)
variable C16all equal 0.5*(${C16}+${C61})
variable C16all equal 0.5*(-4.0792782129353+${C61})
variable C16all equal 0.5*(-4.0792782129353+0.211949484413118)

variable C24all equal 0.5*(${C24}+${C42})
variable C24all equal 0.5*(-3.3046084824814+${C42})
variable C24all equal 0.5*(-3.3046084824814+-0.444303125292065)
variable C25all equal 0.5*(${C25}+${C52})
variable C25all equal 0.5*(-0.250255913459318+${C52})
variable C25all equal 0.5*(-0.250255913459318+-0.195630095725944)
variable C26all equal 0.5*(${C26}+${C62})
variable C26all equal 0.5*(-3.92838333005978+${C62})
variable C26all equal 0.5*(-3.92838333005978+0.434316922796879)

variable C34all equal 0.5*(${C34}+${C43})
variable C34all equal 0.5*(-1.40177803418857+${C43})
variable C34all equal 0.5*(-1.40177803418857+1.87624549374305)
variable C35all equal 0.5*(${C35}+${C53})
variable C35all equal 0.5*(-0.820154653396926+${C53})
variable C35all equal 0.5*(-0.820154653396926+0.286509095297504)
variable C36all equal 0.5*(${C36}+${C63})
variable C36all equal 0.5*(-3.22159358430429+${C63})
variable C36all equal 0.5*(-3.22159358430429+-1.56020506520603)

variable C45all equal 0.5*(${C45}+${C54})
variable C45all equal 0.5*(-0.061213009302553+${C54})
variable C45all equal 0.5*(-0.061213009302553+-1.71156586966052)
variable C46all equal 0.5*(${C46}+${C64})
variable C46all equal 0.5*(0.72316965377839+${C64})
variable C46all equal 0.5*(0.72316965377839+1.23242990077902)
variable C56all equal 0.5*(${C56}+${C65})
variable C56all equal 0.5*(-0.241737604775348+${C65})
variable C56all equal 0.5*(-0.241737604775348+0.618137332059849)

# Average moduli for cubic crystals

variable C11cubic equal (${C11all}+${C22all}+${C33all})/3.0
variable C11cubic equal (1.04087769918945+${C22all}+${C33all})/3.0
variable C11cubic equal (1.04087769918945+0.401265865263305+${C33all})/3.0
variable C11cubic equal (1.04087769918945+0.401265865263305+2.53169438808038)/3.0
variable C12cubic equal (${C12all}+${C13all}+${C23all})/3.0
variable C12cubic equal (-1.3503716178963+${C13all}+${C23all})/3.0
variable C12cubic equal (-1.3503716178963+0.7915262971399+${C23all})/3.0
variable C12cubic equal (-1.3503716178963+0.7915262971399+1.50510491884496)/3.0
variable C44cubic equal (${C44all}+${C55all}+${C66all})/3.0
variable C44cubic equal (-0.316876377303654+${C55all}+${C66all})/3.0
variable C44cubic equal (-0.316876377303654+-1.08385538759994+${C66all})/3.0
variable C44cubic equal (-0.316876377303654+-1.08385538759994+-0.405485320024382)/3.0

variable bulkmodulus equal (${C11cubic}+2*${C12cubic})/3.0
variable bulkmodulus equal (1.32461265084438+2*${C12cubic})/3.0
variable bulkmodulus equal (1.32461265084438+2*0.31541986602952)/3.0
variable shearmodulus1 equal ${C44cubic}
variable shearmodulus1 equal -0.602072361642659
variable shearmodulus2 equal (${C11cubic}-${C12cubic})/2.0
variable shearmodulus2 equal (1.32461265084438-${C12cubic})/2.0
variable shearmodulus2 equal (1.32461265084438-0.31541986602952)/2.0
variable poissonratio equal 1.0/(1.0+${C11cubic}/${C12cubic})
variable poissonratio equal 1.0/(1.0+1.32461265084438/${C12cubic})
variable poissonratio equal 1.0/(1.0+1.32461265084438/0.31541986602952)

# For Stillinger-Weber silicon, the analytical results
# are known to be (E. R. Cowley, 1988):
#               C11 = 151.4 GPa
#               C12 = 76.4 GPa
#               C44 = 56.4 GPa

print "========================================="
=========================================
print "Components of the Elastic Constant Tensor"
Components of the Elastic Constant Tensor
print "========================================="
=========================================

print "Elastic Constant C11all = ${C11all} ${cunits}"
Elastic Constant C11all = 1.04087769918945 GPa
print "Elastic Constant C22all = ${C22all} ${cunits}"
Elastic Constant C22all = 0.401265865263305 GPa
print "Elastic Constant C33all = ${C33all} ${cunits}"
Elastic Constant C33all = 2.53169438808038 GPa

print "Elastic Constant C12all = ${C12all} ${cunits}"
Elastic Constant C12all = -1.3503716178963 GPa
print "Elastic Constant C13all = ${C13all} ${cunits}"
Elastic Constant C13all = 0.7915262971399 GPa
print "Elastic Constant C23all = ${C23all} ${cunits}"
Elastic Constant C23all = 1.50510491884496 GPa

print "Elastic Constant C44all = ${C44all} ${cunits}"
Elastic Constant C44all = -0.316876377303654 GPa
print "Elastic Constant C55all = ${C55all} ${cunits}"
Elastic Constant C55all = -1.08385538759994 GPa
print "Elastic Constant C66all = ${C66all} ${cunits}"
Elastic Constant C66all = -0.405485320024382 GPa

print "Elastic Constant C14all = ${C14all} ${cunits}"
Elastic Constant C14all = -1.39844444901318 GPa
print "Elastic Constant C15all = ${C15all} ${cunits}"
Elastic Constant C15all = 0.298398242140974 GPa
print "Elastic Constant C16all = ${C16all} ${cunits}"
Elastic Constant C16all = -1.93366436426109 GPa

print "Elastic Constant C24all = ${C24all} ${cunits}"
Elastic Constant C24all = -1.87445580388673 GPa
print "Elastic Constant C25all = ${C25all} ${cunits}"
Elastic Constant C25all = -0.222943004592631 GPa
print "Elastic Constant C26all = ${C26all} ${cunits}"
Elastic Constant C26all = -1.74703320363145 GPa

print "Elastic Constant C34all = ${C34all} ${cunits}"
Elastic Constant C34all = 0.23723372977724 GPa
print "Elastic Constant C35all = ${C35all} ${cunits}"
Elastic Constant C35all = -0.266822779049711 GPa
print "Elastic Constant C36all = ${C36all} ${cunits}"
Elastic Constant C36all = -2.39089932475516 GPa

print "Elastic Constant C45all = ${C45all} ${cunits}"
Elastic Constant C45all = -0.886389439481536 GPa
print "Elastic Constant C46all = ${C46all} ${cunits}"
Elastic Constant C46all = 0.977799777278705 GPa
print "Elastic Constant C56all = ${C56all} ${cunits}"
Elastic Constant C56all = 0.18819986364225 GPa

print "========================================="
=========================================
print "Average properties for a cubic crystal"
Average properties for a cubic crystal
print "========================================="
=========================================

print "Bulk Modulus = ${bulkmodulus} ${cunits}"
Bulk Modulus = 0.651817460967807 GPa
print "Shear Modulus 1 = ${shearmodulus1} ${cunits}"
Shear Modulus 1 = -0.602072361642659 GPa
print "Shear Modulus 2 = ${shearmodulus2} ${cunits}"
Shear Modulus 2 = 0.50459639240743 GPa
print "Poisson Ratio = ${poissonratio}"
Poisson Ratio = 0.192325373298542
Total wall time: 0:21:42
