LAMMPS (29 Sep 2021 - Update 1)
OMP_NUM_THREADS environment is not set. Defaulting to 1 thread. (src/comm.cpp:98)
  using 1 OpenMP thread(s) per MPI task
package gpu 0
package gpu 0
variable    T equal 300.0
variable    V equal vol
variable    dt equal 1.0

variable    s equal 1       # sample interval
variable    p equal 5000     # correlation length
variable    d equal $p*$s   # dump interval
variable    d equal 5000*$s   
variable    d equal 5000*1   

variable    ttt equal 1000*$d
variable    ttt equal 1000*5000

# convert from LAMMPS real units to SI

variable    kB equal 1.3806504e-23    # [J/K] Boltzmann
variable    atm2Pa equal 101325.0
variable    A2m equal 1.0e-10
variable    fs2s equal 1.0e-15
variable    convert equal ${atm2Pa}*${atm2Pa}*${fs2s}*${A2m}*${A2m}*${A2m}
variable    convert equal 101325*${atm2Pa}*${fs2s}*${A2m}*${A2m}*${A2m}
variable    convert equal 101325*101325*${fs2s}*${A2m}*${A2m}*${A2m}
variable    convert equal 101325*101325*1e-15*${A2m}*${A2m}*${A2m}
variable    convert equal 101325*101325*1e-15*1e-10*${A2m}*${A2m}
variable    convert equal 101325*101325*1e-15*1e-10*1e-10*${A2m}
variable    convert equal 101325*101325*1e-15*1e-10*1e-10*1e-10

# setup problem
atom_style      full
boundary        p p p
units           real

pair_style   lj/cut/coul/long 12.0 12.0
bond_style   harmonic
angle_style  harmonic
kspace_style pppm 0.0001

read_data SPCE_OPT.data
Reading data file ...
  orthogonal box = (2.1051585 2.1051585 2.1051585) to (39.394841 39.394841 39.394841)
  1 by 1 by 2 MPI processor grid
  reading atoms ...
  5184 atoms
  reading velocities ...
  5184 velocities
  scanning bonds ...
  2 = max bonds/atom
  scanning angles ...
  1 = max angles/atom
  reading bonds ...
  3456 bonds
  reading angles ...
  1728 angles
Finding 1-2 1-3 1-4 neighbors ...
  special bond factors lj:    0        0        0       
  special bond factors coul:  0        0        0       
     2 = max # of 1-2 neighbors
     1 = max # of 1-3 neighbors
     1 = max # of 1-4 neighbors
     2 = max # of special neighbors
  special bonds CPU = 0.001 seconds
  read_data CPU = 0.024 seconds

pair_coeff     1 1 0.1553 3.166
pair_coeff     * 2 0.0 0.0

bond_coeff 1    600.0 1.0
angle_coeff 1   75.0 109.47
special_bonds   lj/coul 0.0 0.0 0.5
Finding 1-2 1-3 1-4 neighbors ...
  special bond factors lj:    0        0        0.5     
  special bond factors coul:  0        0        0.5     
     2 = max # of 1-2 neighbors
     1 = max # of 1-3 neighbors
     1 = max # of 1-4 neighbors
     2 = max # of special neighbors
  special bonds CPU = 0.001 seconds


neighbor 2.0 bin
neigh_modify delay 1 every 1  check yes

fix	       fshake all shake 0.0001 20 0 b 1 a 1
       0 = # of size 2 clusters
       0 = # of size 3 clusters
       0 = # of size 4 clusters
    1728 = # of frozen angles
  find clusters CPU = 0.000 seconds

timestep     ${dt}
timestep     1
thermo       $d
thermo       5000
thermo_style    custom step temp vol press etotal pe ke epair ecoul lx ly lz density cpuremain

# equilibration and thermalization

#velocity     all create ${T} 12345 mom yes rot yes dist gaussian
fix          NVT all nvt temp $T $T 100 drag 0.2
fix          NVT all nvt temp 300 $T 100 drag 0.2
fix          NVT all nvt temp 300 300 100 drag 0.2
run          10000

CITE-CITE-CITE-CITE-CITE-CITE-CITE-CITE-CITE-CITE-CITE-CITE-CITE

Your simulation uses code contributions which should be cited:

- GPU package (short-range, long-range and three-body potentials):

@Article{Brown11,
 author = {W. M. Brown, P. Wang, S. J. Plimpton, A. N. Tharrington},
 title = {Implementing Molecular Dynamics on Hybrid High Performance Computers - Short Range Forces},
 journal = {Comp.~Phys.~Comm.},
 year =    2011,
 volume =  182,
 pages =   {898--911}
}

@Article{Brown12,
 author = {W. M. Brown, A. Kohlmeyer, S. J. Plimpton, A. N. Tharrington},
 title = {Implementing Molecular Dynamics on Hybrid High Performance Computers - Particle-Particle Particle-Mesh},
 journal = {Comp.~Phys.~Comm.},
 year =    2012,
 volume =  183,
 pages =   {449--459}
}

@Article{Brown13,
 author = {W. M. Brown, Y. Masako},
 title = {Implementing Molecular Dynamics on Hybrid High Performance Computers – Three-Body Potentials},
 journal = {Comp.~Phys.~Comm.},
 year =    2013,
 volume =  184,
 pages =   {2785--2793}
}

@Article{Trung15,
 author = {T. D. Nguyen, S. J. Plimpton},
 title = {Accelerating dissipative particle dynamics simulations for soft matter systems},
 journal = {Comput.~Mater.~Sci.},
 year =    2015,
 volume =  100,
 pages =   {173--180}
}

@Article{Trung17,
 author = {T. D. Nguyen},
 title = {GPU-accelerated Tersoff potentials for massively parallel Molecular Dynamics simulations},
 journal = {Comp.~Phys.~Comm.},
 year =    2017,
 volume =  212,
 pages =   {113--122}
}

@Article{Nikolskiy19,
 author = {V. Nikolskiy, V. Stegailov},
 title = {GPU acceleration of four-site water models in LAMMPS},
 journal = {Proceeding of the International Conference on Parallel Computing (ParCo 2019), Prague, Czech Republic},
 year =    2019
}

CITE-CITE-CITE-CITE-CITE-CITE-CITE-CITE-CITE-CITE-CITE-CITE-CITE

PPPM initialization ...
  using 12-bit tables for long-range coulomb (src/kspace.cpp:340)
  G vector (1/distance) = 0.21954781
  grid = 16 16 16
  stencil order = 5
  estimated absolute RMS force accuracy = 0.029788487
  estimated relative force accuracy = 8.9707142e-05
  using single precision MKL FFT
  3d grid and FFT values/proc = 5733 2048
Per MPI rank memory allocation (min/avg/max) = 15.91 | 15.92 | 15.92 Mbytes
Step Temp Volume Press TotEng PotEng KinEng E_pair E_coul Lx Ly Lz Density CPULeft 
       0    302.91727    51852.067   -414.29842   -16012.271   -19131.925    3119.6537   -19131.925    53898.234    37.289683    37.289683    37.289683   0.99694371            0 
    5000    297.15878    51852.067    348.94818   -16117.456   -19177.804    3060.3487   -19177.804    53644.701    37.289683    37.289683    37.289683   0.99694371    4.7453671 
   10000     298.0381    51852.067    259.55905   -16191.429   -19260.833    3069.4046   -19260.833    53563.575    37.289683    37.289683    37.289683   0.99694371            0 
Loop time of 9.47499 on 2 procs for 10000 steps with 5184 atoms

Performance: 91.187 ns/day, 0.263 hours/ns, 1055.410 timesteps/s
84.2% CPU use with 2 MPI tasks x 1 OpenMP threads

MPI task timing breakdown:
Section |  min time  |  avg time  |  max time  |%varavg| %total
---------------------------------------------------------------
Pair    | 1.8004     | 1.8586     | 1.9168     |   4.3 | 19.62
Bond    | 0.0018983  | 0.0020319  | 0.0021656  |   0.3 |  0.02
Kspace  | 3.2386     | 3.2565     | 3.2744     |   1.0 | 34.37
Neigh   | 0.01408    | 0.01467    | 0.01526    |   0.5 |  0.15
Comm    | 1.6168     | 1.6263     | 1.6358     |   0.7 | 17.16
Output  | 5.579e-05  | 6.8307e-05 | 8.0824e-05 |   0.0 |  0.00
Modify  | 2.3576     | 2.3895     | 2.4213     |   2.1 | 25.22
Other   |            | 0.3273     |            |       |  3.45

Nlocal:        2592.00 ave        2596 max        2588 min
Histogram: 1 0 0 0 0 0 0 0 0 1
Nghost:        17349.0 ave       17357 max       17341 min
Histogram: 1 0 0 0 0 0 0 0 0 1
Neighs:         0.00000 ave           0 max           0 min
Histogram: 2 0 0 0 0 0 0 0 0 0

Total # of neighbors = 0
Ave neighs/atom = 0.0000000
Ave special neighs/atom = 2.0000000
Neighbor list builds = 487
Dangerous builds = 0

# viscosity calculation, switch to NVE if desired

#unfix       NVT
#fix         NVE all nve

reset_timestep 0
variable     pxy equal pxy
variable     pxz equal pxz
variable     pyz equal pyz
fix          SS all ave/correlate $s $p $d              v_pxy v_pxz v_pyz type auto file S0St.dat ave running
fix          SS all ave/correlate 1 $p $d              v_pxy v_pxz v_pyz type auto file S0St.dat ave running
fix          SS all ave/correlate 1 5000 $d              v_pxy v_pxz v_pyz type auto file S0St.dat ave running
fix          SS all ave/correlate 1 5000 5000              v_pxy v_pxz v_pyz type auto file S0St.dat ave running
variable     scale equal ${convert}/(${kB}*$T)*$V*$s*${dt}
variable     scale equal 1.0266755625e-35/(${kB}*$T)*$V*$s*${dt}
variable     scale equal 1.0266755625e-35/(1.3806504e-23*$T)*$V*$s*${dt}
variable     scale equal 1.0266755625e-35/(1.3806504e-23*300)*$V*$s*${dt}
variable     scale equal 1.0266755625e-35/(1.3806504e-23*300)*51852.0667444552*$s*${dt}
variable     scale equal 1.0266755625e-35/(1.3806504e-23*300)*51852.0667444552*1*${dt}
variable     scale equal 1.0266755625e-35/(1.3806504e-23*300)*51852.0667444552*1*1
variable     v11 equal trap(f_SS[3])*${scale}
variable     v11 equal trap(f_SS[3])*1.28526984556581e-10
variable     v22 equal trap(f_SS[4])*${scale}
variable     v22 equal trap(f_SS[4])*1.28526984556581e-10
variable     v33 equal trap(f_SS[5])*${scale}
variable     v33 equal trap(f_SS[5])*1.28526984556581e-10
thermo_style custom step time temp press v_pxy v_pxz v_pyz v_v11 v_v22 v_v33 cpuremain
run          ${ttt}
run          5000000
PPPM initialization ...
  using 12-bit tables for long-range coulomb (src/kspace.cpp:340)
  G vector (1/distance) = 0.21954781
  grid = 16 16 16
  stencil order = 5
  estimated absolute RMS force accuracy = 0.029788487
  estimated relative force accuracy = 8.9707142e-05
  using single precision MKL FFT
  3d grid and FFT values/proc = 5733 2048
Per MPI rank memory allocation (min/avg/max) = 15.91 | 15.92 | 15.92 Mbytes
Step Time Temp Press v_pxy v_pxz v_pyz v_v11 v_v22 v_v33 CPULeft 
       0        10000     298.0381    260.19709    314.69915   -145.04252   -133.23817 6.3643706e-06 1.3519325e-06 1.1408319e-06            0 
    5000        15000    306.23573     545.7456    -103.9841    83.777516    53.764366 0.0014292026 -0.00015454809 -0.0012599413    4848.8624 
   10000        20000    300.80378    42.102419   -72.848682   -86.205107    165.93459 0.00071036906 0.0020229996 -0.00026543546    4872.1872 
   15000        25000    306.56832   -85.925706    487.54308  -0.42845344   -314.57895 0.00049175964 0.0010401632 0.00025250471    4879.9801 
   20000        30000    305.86093   -211.14667    73.125557   -185.39396   -78.175581 0.00054036187 0.00070877721 0.0021328557    4881.8056 
   25000        35000    298.57515    490.95308    11.672571    34.419279    93.091194 0.00055353435 0.00060931916 0.0014167234    4878.8603 
   30000        40000    305.36129   -22.543246   -250.09459    67.421638   -363.16906 0.00048178915 0.00053615482 0.0012947953    4876.6444 
   35000        45000    299.40059     236.4802    232.31738   -609.87945   -213.57974 0.0003976218 0.00064311334 0.0010452076    4872.8564 
   40000        50000    294.51025   -478.22677   -92.331287    434.41468     195.8846 0.00046970523 0.00014179253 0.00094766606    4869.2681 
   45000        55000    298.76796   -52.004067    173.04937    254.90121    75.148343 0.00046812936 0.00010638092 0.00083276616    4864.7639 
   50000        60000    304.63268    198.57739   -95.351604   -74.583598   -318.07217 0.00053536538 0.00059201197 0.0011221333    4861.4055 
   55000        65000    299.38506    130.63978    359.16612   -436.59015   -196.99003 0.00057488808 0.00053412504 0.0013437786    4865.9008 
   60000        70000    294.93109    50.967074   -247.39386   -145.13131    -126.2472 0.00055945434 0.00052572477 0.0012674157    4861.6028 
   65000        75000    301.45581    286.78369   -71.386872   -35.572454   -740.67877 0.00048295567 0.00056533978 0.0011978894    4856.9783 
   70000        80000    301.76628   -64.656229   -63.871574   -306.83361    225.10065 0.00046725368 0.0005874642 0.0011587585    4851.2611 
   75000        85000    299.52707    113.20487   -45.755711   -88.059589    48.826535 0.00036128874 0.00055178075 0.0010794935    4846.2233 
   80000        90000    293.83645   -48.047087   -22.818212   0.38732877    48.149599 0.00033457632 0.00058771747 0.0010394153    4841.6984 
   85000        95000    297.75012   -185.44516   -315.09874    402.19157    207.90456 0.00031498346 0.00053943121 0.00095794191    4836.8299 
   90000       100000    297.19111   -123.76689    350.06604    193.00339    305.31859 0.00031934887 0.00054022578 0.00096388536    4831.7246 
   95000       105000    292.08394    288.25239     165.5476    125.32413    141.91474 0.00039582816 0.00050705132 0.00090335681    4826.2647 
  100000       110000    299.21801    45.142652   -195.44186    173.40148    500.06425 0.00039150354 0.00049965197 0.00085800211    4821.1166 
  105000       115000    297.89106   -73.140075   -38.399232    287.23475   -407.50566 0.00045361325 0.00052892862 0.00085699281    4816.3909 
  110000       120000    304.95576   -114.05269    626.65692   -68.156661   -298.50594 0.00055449586 0.00059919534 0.00083271851     4811.286 
  115000       125000    301.32888   -281.70008    141.50994   -190.62355    423.14254 0.00051288154 0.00052690121 0.00083059483    4806.0521 
  120000       130000    301.93525   -369.78697   -337.80196    95.256546   -2.1421241 0.00050387165 0.00048914471 0.00078170778    4800.8666 
  125000       135000    301.64958   -259.71145    258.33996    228.08904   -39.571168 0.0004998313 0.00049432003 0.00074873647    4795.7772 
  130000       140000    298.49966   -40.451282   -67.903204   -444.95196    111.41401 0.00048626341 0.00047456297 0.00072932962    4790.6572 
  135000       145000    302.31544    388.82037    240.94215     101.1576    10.101655 0.00044621704  0.000405972 0.00075892825    4785.6157 
  140000       150000    298.39924    36.651379   -547.99505    19.531196   -224.42075 0.00041423863 0.00037546746 0.00073587717    4780.5336 
  145000       155000    307.44244    482.07649   -13.665483   -1.2323885    316.44297 0.00039579861 0.00035548538 0.00071284876    4775.5598 
  150000       160000    297.20095    324.09636    24.826924    80.532701   -5.7019311 0.00042030832 0.00040533715 0.00068660663    4770.3592 
  155000       165000    298.56122    87.796819    214.22735    23.162923    161.53747 0.00050359352 0.00041208742 0.00068018171    4765.2328 
  160000       170000     304.5048    98.920447   -61.437468   -152.03263   -478.53054 0.00056535489 0.00036094208 0.00065738466    4760.5816 
  165000       175000    298.90698    169.40618    421.81276    169.01769   -142.99754 0.0006228014 0.00035985212 0.00063265915    4755.5263 
  170000       180000    296.67626    311.36752    66.319068   -435.91927   -252.19364 0.0005773976 0.00035172399 0.00063338332    4750.5313 
  175000       185000    294.27314   -164.46064   -20.463267   -108.61179   -399.52809 0.00064123498 0.00034434983 0.00060634297    4745.5197 
  180000       190000    296.68822    232.62527   -49.685776    536.03615    71.986664 0.00061344217 0.00034338497 0.00061798098    4740.4407 
  185000       195000    294.57561    123.47958   -587.51253    45.235411    239.04502 0.00059975137 0.00033508755 0.00061349097    4735.4654 
  190000       200000     304.5056    201.80979     -340.656   -451.14297    9.1276331 0.00057685811 0.0004404508 0.00058143377    4730.3298 
  195000       205000    292.34736    186.90205   -285.80271     318.5345     -271.079 0.00054678978 0.00038815497 0.00055977804    4725.5714 
  200000       210000    301.40001    390.70022    116.85237    316.07466    213.88171 0.00053032091 0.00038057777 0.00057230824    4720.8161 
  205000       215000    301.21448    88.813006   -163.35006    133.42356    269.86924 0.00050907895 0.00038978844 0.00055136357    4715.9236 
  210000       220000    299.62431   -281.43859   -91.273902    -261.3604    95.614578 0.00051830909 0.0003953578 0.00054486031    4710.7733 
  215000       225000    298.50453    144.28322     332.1681    -13.91202   -63.757068 0.00050942036 0.00044450764 0.00053227731    4705.9786 
  220000       230000    303.27829    204.33877    426.10989   -165.53267   -204.73807 0.00050826021 0.00040021157 0.00051832901    4700.7651 
  225000       235000     299.2675    73.603253    21.969876    467.95131   -2.1579522 0.00049054708 0.0003958166 0.00051233637    4695.6119 
  230000       240000    295.02487    227.86274   -77.974038   -448.86319    691.31977 0.00048517133 0.00039162067 0.00050279405    4690.5732 
  235000       245000    299.69473   -58.894348    400.52505    106.70819    82.087887 0.00048930244 0.00038924605 0.00050581569    4685.5376 
  240000       250000    297.88788    149.22052    86.298002    67.757204   -206.50954 0.00050843997 0.00039324211 0.00049012983    4680.4172 
  245000       255000    303.11867    522.94389   -161.49435    30.586691   -12.071471 0.00052028955 0.00038699081 0.00052808695    4675.5157 
  250000       260000    299.15898   -197.32828     28.38756    419.37625   -429.94673 0.00055626734 0.00038086062 0.00050756738    4670.5321 
  255000       265000    295.51447    266.96558    286.54269   -55.183628   -388.43681 0.00055010375 0.00038817521 0.00050300432    4665.3429 
  260000       270000    300.49783   -143.99435   -69.373866   -396.89089    517.55197 0.00053660485 0.00037931863 0.00050280505     4660.251 
  265000       275000    305.34342    367.42366    521.17309   -648.57129   -18.000622 0.00050659501 0.00039672211 0.00053115892    4655.4547 
  270000       280000    302.17979   -183.83043   -282.78234   -382.02152    -20.59925 0.00050462176 0.00040922617  0.000519729    4650.6591 
  275000       285000    309.66628    133.84681    428.34188    62.073129   -84.613205 0.00050851153 0.00040543973 0.00051038176    4645.6359 
  280000       290000    300.86887   -173.04993    -165.9912     -215.561    60.382336 0.00052532974 0.00039650563 0.00049645078    4640.6689 
  285000       295000    299.50268   -43.799365   -311.05052    266.25612    325.99435 0.00051195635 0.00039213623 0.00048790274    4635.7107 
  290000       300000    296.23674     77.33248    439.13885   -240.45168    399.52831 0.00051506139 0.00043789188 0.00051225912    4630.7805 
  295000       305000    294.16217    306.59231   -269.30326    303.78338    93.267964 0.0005177497 0.0004356561 0.00053213883    4626.0901 
  300000       310000    300.16994   -121.59597     393.2023   -187.82739   -140.27566 0.00056667652 0.00044434759 0.00052928754    4621.4274 
  305000       315000    300.25684   -18.914936    504.19138    166.43151    56.413213 0.00057868895 0.00044464561 0.00051129022    4616.4719 
  310000       320000    297.32008    242.38669    117.58627   -388.49511    111.07553 0.00056780247 0.00043267247 0.00050469442    4611.6694 
  315000       325000    295.77036   -619.60549   -625.41585    97.255734    16.726097 0.00055932377 0.00044490559 0.00048867071    4606.6724 
  320000       330000    297.35746   -106.85656   -124.54359    186.89955    -351.3343 0.00056112559 0.00043744869 0.00048799917    4601.7994 
  325000       335000    301.42436   -18.164821   -95.890801    547.52833   -455.23838 0.00057525626 0.00043180954 0.00048982093    4596.9379 
  330000       340000    300.12604   -228.93974    140.15466    292.15874   -373.22496 0.00056475932 0.00042588413 0.00048704376    4591.9398 
  335000       345000    302.68941    388.36391    674.73019   -28.153505   -115.28471 0.00055788066 0.00042342111 0.00049362688    4586.9694 
  340000       350000    298.94752   -641.83041    7.2720941    25.225105    69.464288 0.00055623645 0.00041504391 0.00049890688    4581.9656 
  345000       355000    309.04844    76.006352    63.436542   -198.32253    298.41685 0.00061467173 0.00041201353 0.00049168868    4577.1953 
  350000       360000    299.58192   -21.996733     18.40915    152.29418     607.8436 0.00075131529 0.00041057001 0.00048708797    4572.3333 
  355000       365000    297.33016    20.804158   -165.25727    36.772753   -670.38934 0.00074729801 0.00044481976 0.00047982619    4567.5075 
  360000       370000    299.35692    141.46228   -203.67532    71.010307   -327.78162 0.00074556662 0.00042928862 0.00048352869    4562.4887 
  365000       375000    306.58918   -90.737425   -143.48008   -289.74215   -228.12932 0.00073534121 0.00041636021 0.00051740404    4557.4509 
  370000       380000    304.05536    39.787592   -379.95484     71.81665    22.437599 0.0007222974 0.00040665454 0.00050874318     4552.469 
  375000       385000    295.20264   -305.47896    98.748638     68.58313   -142.04735 0.00071761286 0.00040144417 0.00051132477    4547.4706 
  380000       390000     303.8036    73.464146    19.841177    110.89955   -309.31972 0.00070778535 0.00041917606 0.0006187179    4542.5818 
  385000       395000    304.34972   -46.707868   -696.34026    360.10733   -130.33313 0.00073074287 0.00039942734 0.00062612952    4537.6206 
  390000       400000    297.46322   -208.99276   -462.53265    36.162849    2.3554246 0.00073335566 0.00039971112 0.00061942985    4532.8124 
  395000       405000    301.06224    58.426177    168.59711   -404.80226    57.712972 0.00070878055 0.00039643717 0.00061012138    4527.9209 
  400000       410000    301.46462     492.2878    78.888114    103.98242    124.63313 0.00071101981 0.00039099991 0.00060186506    4523.1338 
  405000       415000    308.12768    187.07829    54.359873    -115.6106    390.65479 0.00073511784 0.00038686318 0.00059621293    4518.1762 
  410000       420000    302.35771    369.40185    170.80582    145.23827    558.25915 0.00072147357 0.00039530053 0.00060019528    4513.2485 
  415000       425000    301.43902   -216.59126    156.29276    119.60499    67.486377 0.00071719531 0.00038796442 0.00059503484    4508.3436 
  420000       430000    300.40865   -9.6461211   -188.73279    -363.5011   -56.313733 0.00070535801 0.00040925198 0.00059685508    4503.5817 
  425000       435000    307.70075    -115.6944    369.22546    212.65987     140.5246 0.00070086475 0.00040044738 0.0006040177    4498.5787 
  430000       440000    298.77296     -123.469    139.56858    131.64581   -459.40832 0.00069662904 0.0003977569 0.00062298445    4493.6099 
  435000       445000    302.26574    139.16031    5.5239251   -171.99368    89.198161 0.0007416543 0.00039344545 0.00061997123    4488.6376 
  440000       450000    301.55231    168.57717     158.5715    163.11503   -86.927304 0.00074659964 0.00040070838 0.00060581932    4483.6967 
  445000       455000    293.45105    335.13698    477.54372    310.13328    260.58716 0.00075842095 0.00039033673 0.00060700383    4478.8086 
  450000       460000    306.96625    508.00847   -358.37598    152.22561   -304.28518 0.00074391059 0.00037447953 0.00059863623    4473.8671 
  455000       465000    298.44235    32.806547    469.51022     517.3511   -60.917763 0.00072998027 0.00036530398 0.00059598282    4468.9257 
  460000       470000    305.54114    435.95015     -14.0746    95.855796    133.55384 0.00072721802 0.00037953859 0.00058734288    4463.9986 
  465000       475000    302.92137    164.13441   -329.17773   -255.33971    533.87973 0.00071623857 0.00039867666 0.00058127799    4459.0113 
  470000       480000    300.77272    161.38304   -86.979717   -242.42882    307.12828 0.00070642562 0.00039298994 0.00059519527    4454.1836 
  475000       485000    296.98392    376.80662    81.212526    48.439603    184.98893 0.00069944989 0.00039776764 0.0006059425    4449.3303 
  480000       490000    299.23869    22.415841   -44.352986    103.58075    42.648088 0.00069449378 0.00038544744 0.0005939139    4444.2813 
  485000       495000    299.38112   -282.56825    118.68666   -8.7757097    292.11152 0.00069843007 0.00038085248 0.00057714012     4439.269 
  490000       500000    294.07949    382.34718   -65.892559    388.55192   -126.12184 0.00069348782 0.00038113507 0.00056695653    4434.3759 
  495000       505000    300.43674   -52.089374    345.69506    485.22742   -216.72574 0.00068540897 0.00039141189 0.00056579064     4429.476 
  500000       510000    300.10113   -37.967718    251.25888       16.958   -46.553712 0.00067510745 0.00038151435 0.00056435374     4424.568 
  505000       515000    296.54152    781.61601    234.63117   -80.137921    158.79982 0.00067158279 0.00038396012 0.00057250298    4419.7149 
  510000       520000    296.51219    251.16183    499.03547    69.914778    -202.4837 0.00068190444 0.00039780801 0.00057780603    4414.8019 
  515000       525000    303.69929   -77.492841    262.93266    202.18084   -178.36245 0.00067594003 0.00040083154 0.00057160405    4409.7992 
  520000       530000    303.79577    558.91078   -272.16836   -218.05567   -285.88945 0.00067344561 0.00044880816 0.00056009766    4404.7853 
  525000       535000    299.98752    340.81476   -496.86586   -223.56976    57.803105 0.00066569247 0.00044890842 0.00055266141     4399.856 
  530000       540000    300.61782    811.63023    142.96235    175.04065    97.671906 0.00065612598 0.00045658164 0.00055123261     4394.876 
  535000       545000    302.26433    447.01467   -41.730289   -230.15444    276.51279 0.00066911124 0.00046674931 0.00055208314    4389.9375 
  540000       550000    291.15111   -421.48547    27.793251   -184.63532   -428.50775 0.00065621767 0.00048314539 0.00054463649    4385.0554 
  545000       555000    302.97212    153.71694    211.25192   -389.23042    -22.32321 0.0006721179 0.00049664837 0.00056076593    4380.0903 
  550000       560000    300.12385    227.94245   -499.97013   -346.78423    115.66652 0.00068380584 0.00051065415 0.00056783083    4375.1899 
  555000       565000    296.50895   -445.75985   -226.47308   -130.36597     477.4323 0.00070315015 0.00050913583 0.00058783741    4370.2684 
  560000       570000    299.20818    149.99991    338.51229     150.3626   -393.67751 0.00070546485 0.00050852338 0.00057245517    4365.3994 
  565000       575000     292.6459   -9.5944442  -0.65421996   -51.248791   -220.51824 0.00070326071 0.00052066352 0.00056775971    4360.4111 
  570000       580000    299.18074     131.7449    82.683458   -134.27156   -79.409255 0.00068844695 0.0005301081 0.00056975209    4355.5042 
  575000       585000    303.67565    350.50617    52.562836   -266.31103    25.025399 0.0006785845 0.00052292057 0.00056351833    4350.5917 
  580000       590000    302.55752    645.43943    272.50139   -283.60749   -15.362716 0.00068297892 0.00052231165 0.00055542727    4345.6872 
  585000       595000    298.26933   -60.253286    -213.8242    135.03662    215.71475 0.00068308389 0.00052578053 0.00055525535    4340.8048 
  590000       600000    297.10153   -453.93113    110.11266   -213.18792    7.2040288 0.00069977881 0.00051977116 0.00054493718    4335.9016 
  595000       605000    293.17228    196.11517   -193.36251   -453.90093    -290.5611 0.0007248167 0.00051856314 0.00055171419    4331.0278 
  600000       610000    298.88367    308.91751    179.33332   -115.89073    76.026662 0.00072806075 0.0005155637 0.00054696806    4326.0889 
  605000       615000     294.5033    511.42507   -135.95735    125.29815   -468.89838 0.00072542555 0.00051471429 0.00054714729    4321.1695 
  610000       620000    301.87348    45.444255    374.96915   -419.29938   -495.09367 0.00073656615 0.00051149947 0.00054337822    4316.2076 
  615000       625000    305.50421    401.74433   -89.211231   -148.84168   -101.89388 0.0007284041 0.00050690469 0.00053807184    4311.2489 
  620000       630000    309.50762   -76.055164   -64.469401    -240.1548   -54.342001 0.00072481899 0.00050911321 0.00053433876    4306.3765 
  625000       635000    310.89078   -195.21658    226.83027    86.657988    -133.3681 0.00072669694 0.00054361442 0.00053703425    4301.4674 
  630000       640000    299.42982   -32.676258   -106.41336    223.44077    358.28616 0.00072153621 0.00054516368 0.00052890688    4296.6219 
  635000       645000    300.30009   -55.573216    295.30302   -573.09188   -109.25414 0.00071438983 0.00054685133 0.00053150824    4291.7015 
  640000       650000    305.93049   -278.00952   -88.849042    194.16645    133.18054 0.00071229689 0.00055016864 0.00053327085    4286.7564 
  645000       655000      297.667   -590.43796   -225.69378      238.808     129.9954 0.0007127892 0.00057093448 0.00052937433      4281.81 
  650000       660000     303.6407   -478.63401    505.76868   -568.61624     201.9592 0.00072834986 0.00056314973 0.00052545395    4276.8598 
  655000       665000    292.83799   -367.25013   -60.265638    4.6962484   -296.52745 0.00071895114 0.00056256679 0.00053119114    4271.9312 
  660000       670000    299.37147    226.31727    436.61684     308.5295   -443.54694 0.00071468923 0.00056048853 0.00052150161    4267.0547 
  665000       675000    296.90653    252.60224    322.30294    415.70786    550.77457 0.00071042849 0.00055386732 0.00053090759    4262.0747 
  670000       680000    302.20319    151.82243   -26.506307   -48.018802    62.498411 0.00071156252 0.00054888996 0.0005225411    4257.1509 
  675000       685000    298.05595    111.47871    282.17598   -236.63116   -341.19917 0.00070665906 0.00054868509 0.00051595313    4252.1706 
  680000       690000    301.23221   -294.24685   -33.404055    11.979704   -209.65004 0.00070482967 0.00056680718 0.00052165224    4247.1896 
  685000       695000     301.6338   -171.28541    362.40694   -587.34202   -3.9867135 0.0007032041 0.00057049479 0.00052052883    4242.2363 
  690000       700000    305.58914    200.71118     87.28806   -302.88696    25.262846 0.00069982981 0.00057000219 0.00051836329    4237.3399 
  695000       705000    296.28753    477.88447    259.41468   -318.07164   -329.17487 0.00069671424 0.00059720411 0.00053746616     4232.389 
  700000       710000    298.39176    229.41724    40.184251   -68.465411   -242.29719 0.00069203341 0.00060195934 0.0005511888    4227.5296 
  705000       715000    299.83127    109.16847   -37.042249    -434.5426   -18.364166 0.00069027596 0.00061898562 0.00055157265     4222.633 
  710000       720000    299.64135    433.91201   -233.38657    28.007385   -420.39786 0.00069624852 0.00065716065 0.00054586207    4217.6871 
  715000       725000    295.56988     436.3624   -406.99627    76.058799    25.902116 0.00069407352 0.00064591971 0.00054200625    4212.7279 
  720000       730000     296.4141   -36.784984   -233.60732   -175.39124    25.698233 0.00071414934 0.00063912686 0.00054822859    4207.7994 
  725000       735000    299.73457   -89.430017    350.37596   -474.74712   -128.81376 0.00070895923 0.00064075997 0.0005408888    4202.7765 
  730000       740000    295.06809    173.62276    42.943898   -222.97652   -126.16404 0.00071376671 0.00064211529 0.00054346273    4197.8096 
  735000       745000    307.13486    191.41786   -151.51289    273.25214   -217.66736 0.00070726863 0.00063916664 0.00053822152    4192.8629 
  740000       750000     299.4038    37.224216    91.862703    417.53226   -101.35691 0.00070386284 0.00063430791 0.00053191024    4187.9129 
  745000       755000    299.86149    84.717587   -408.94278   -263.87128   -46.860913 0.00071072123 0.0006360796 0.00053750055    4182.9841 
  750000       760000    305.09417    309.94465     -49.6991   -117.89332   -424.20286 0.00070411294 0.00063533031 0.0005354162    4178.0456 
  755000       765000     304.1143    967.76711    369.72226   -239.75269   -482.83634 0.00070202957 0.00063084803 0.00055107808    4173.1561 
  760000       770000    303.37032    971.88156    212.44327     177.6482    276.65922 0.00069770377 0.00063048909 0.00054685684    4168.1897 
  765000       775000      298.165   -304.45408   -298.13993   -70.660814   -233.18115 0.00070586528 0.00063821279 0.00054842799    4163.2514 
  770000       780000    303.07778    183.78608   -486.03599   -222.58959   -80.616812 0.00073507424 0.00063380272 0.00054046359     4158.347 
  775000       785000      296.777    596.73779     -154.672   -340.05535   -443.22381 0.00073330425 0.00065491626 0.00053725369    4153.4455 
  780000       790000    302.97118   -197.07739   -159.21666    -524.5902   -293.19968 0.00072118802 0.00065077277 0.00053185399    4148.5267 
  785000       795000    302.54224    79.203162   -124.37324   -173.06449     195.2699 0.00071777835 0.00064690755 0.00054235613    4143.6292 
  790000       800000    298.75146    359.94515   -50.609776   -639.71456   -51.033414 0.00071659246 0.0006442112 0.00054407778    4138.7024 
  795000       805000     299.6662    390.15208   -65.354018   -403.50537    485.59725 0.0007114022 0.00063955142 0.00054081222     4133.815 
  800000       810000    303.42395    167.51269   -93.453749    192.71996    478.34648 0.00071256688 0.00063805896 0.00054441851    4128.8985 
  805000       815000    301.27264    760.54596    721.97676    140.54822   -160.69228 0.00070980472 0.00063836169 0.0005489432    4123.9978 
  810000       820000    298.96378   -139.15526   -71.513798   -175.66098    68.257143 0.00070470445 0.00063523793 0.00055679175    4119.0669 
  815000       825000    298.62003   -370.12056    58.874264    124.98741   -77.043933 0.00071428076 0.0006359913 0.00055077547    4114.1791 
  820000       830000    294.07608   -349.90983    -223.2537    396.55365    417.37075 0.00070376815 0.00064025977 0.00054747982    4109.1766 
  825000       835000    293.02728   -477.96453   -19.647397   -260.07868    131.96167 0.00071301336 0.00063607561 0.00053990768    4104.2247 
  830000       840000    303.22496   -199.18566    -437.0259   -345.91263    333.03277 0.00071341527 0.00063302549 0.00053938655    4099.2722 
  835000       845000    296.52679   -128.59226   -377.24904   -225.60538   -1.5120778 0.00071043175 0.00063236536 0.00053620313    4094.2928 
  840000       850000    294.20841    235.63612    29.849751    175.05239   -403.40113 0.00070865892 0.0006280773 0.00053642843    4089.3274 
  845000       855000     307.4144    1.5682445    236.46136    102.33451   -5.4034811 0.00070514413 0.00062457732 0.00054770078    4084.3991 
  850000       860000    298.49379   -30.723788   -76.013779    -441.6244    17.779364 0.00070280286 0.00063367376 0.00054776829    4079.4902 
  855000       865000    291.86368    508.38431   -409.30496    123.54123    181.29655 0.00071897858 0.00063304365 0.00054242775    4074.5271 
  860000       870000    306.09029    171.89963    12.314196   -35.921939    441.97614 0.00072349727 0.00062713339 0.00053775488    4069.5534 
  865000       875000    301.66589   -498.14189   -30.906279   -69.014812   -93.874211 0.00071694482 0.00062506914 0.00054416423    4064.5781 
  870000       880000    301.66189    75.395465    170.82893    86.722711   -232.50994 0.00071107032 0.00062473802 0.00054023578    4059.6704 
  875000       885000    304.78857    546.39574     320.6126   -737.46615    54.846937 0.00071056865 0.00062338758 0.00054410422    4054.7694 
  880000       890000    298.20411   -357.27357   -55.812306    -593.3043    34.522674 0.00070485031 0.00061792679 0.00055771347    4049.8132 
  885000       895000    295.34777   -171.32412    -25.40387   -499.94835   -284.20828 0.00071950719 0.0006154529 0.00055490856    4044.8588 
  890000       900000    302.27038    64.025049    203.90148    387.61446   -125.78889 0.0007176977 0.00061510136 0.00055843531    4039.8829 
  895000       905000    306.46613   -66.449812   -185.84573    107.43583   -161.44802 0.00071996515 0.00062331879 0.00055250447    4034.9619 
  900000       910000    292.64812    85.668777    186.03065     21.01688   -196.59766 0.0007190275 0.00062116848 0.00054858811    4029.9754 
  905000       915000    294.39615    194.88975    76.618651    8.7162329   -260.76624 0.00071531709 0.00061571539 0.00056078972    4025.0125 
  910000       920000    304.84446    30.801975    352.25877    -77.23018    171.62969 0.00071242033 0.00061306709 0.00056828416    4020.0688 
  915000       925000    303.23723    504.13309   -33.567944    201.11758   -46.007496 0.00070860026 0.00061208607 0.00056251812    4015.1799 
  920000       930000    306.73362    700.41515    216.30325    115.17437   -279.03821 0.00070819598 0.00060800992 0.00056041774    4010.2335 
  925000       935000    305.76111    10.261106    133.40825    168.56883    64.068694 0.0007051748 0.00060592346 0.00056079111    4005.2886 
  930000       940000    306.46644    76.660541   -139.03718    308.53092   -235.96248 0.00070190348 0.00060465672 0.00055739482    4000.3633 
  935000       945000    294.82205    528.93703    87.933335   -228.64298     490.9566 0.00069623224 0.00060295524 0.00055594937     3995.442 
  940000       950000    301.30022     267.8711   -215.27106   -104.50379    653.62815 0.0006945706 0.00059882814 0.00055323265    3990.4625 
  945000       955000    300.52376     738.4479   -115.04327    51.211023    448.22488 0.00068879078 0.00059705179 0.00055211118    3985.5184 
  950000       960000    302.25751    504.22509   -85.626704    210.36138   -264.68565 0.00069221192 0.00059159841 0.00055276486    3980.5705 
  955000       965000    299.60417   -240.17485    283.28635    155.32582   -307.48176 0.00068839911 0.00058639057 0.00055780771    3975.6375 
  960000       970000    308.02846    192.17658    231.15805    523.35004    17.940107 0.00068793103 0.00058506424 0.00055478298    3970.7354 
  965000       975000    299.58433    665.15512   -11.810269    227.88894    132.81883 0.00068428351 0.0005885524 0.00056137664    3965.7956 
  970000       980000    296.03071   -70.101468    -29.32215    -198.5355   -308.35193 0.00068225493 0.00059128435 0.00055912344    3960.8915 
  975000       985000    296.49821    335.48901   -308.20342   -234.46199   -189.48834 0.00067919443 0.00058810711 0.00055561831    3956.0205 
  980000       990000    301.59964   -263.68462   -586.49109    5.1947399   -583.22963 0.00067701363 0.00058968623 0.00055476323    3951.1229 
  985000       995000     296.5409    -168.0721    43.983516   -291.83549   -179.31305 0.00066891833 0.00058949025 0.00055182809    3946.1919 
  990000      1000000    300.47907    -357.7867    91.034358   -68.793493    6.1385783 0.00067079337 0.00059345984 0.00055016758     3941.285 
  995000      1005000    289.58842    904.49211   -530.05789     352.6909    361.83534 0.00067718342 0.00059116276 0.00054672283    3936.3865 
 1000000      1010000    298.25155    187.17818    503.06744    377.68781    246.85773 0.00067274754 0.00058821399 0.00053968118    3931.4464 
 1005000      1015000    301.19689     284.1985    369.83839    218.06811    62.012195 0.00066626933 0.00060137851 0.0005339592    3926.5026 
 1010000      1020000    310.37883   -453.78587    48.574786   -201.72982   -112.21693 0.00066737113 0.00062175438 0.0005361952    3921.5382 
 1015000      1025000    293.31424   -308.92294    118.63828    169.46539    100.60603 0.00065994666 0.00061773611 0.00052750205    3916.6099 
 1020000      1030000    297.44374    738.83966    133.27258    151.03185   -95.598979 0.00065690224 0.00063997155 0.0005243067    3911.6743 
 1025000      1035000    297.98873   -345.31896   -675.30763    35.976909    628.90075 0.00066634036 0.00069030112 0.00052098435    3906.7555 
 1030000      1040000    311.85802   -236.48959   -29.672717   -123.73279   -413.84199 0.00072280391 0.0006952515 0.0005286408    3901.7845 
 1035000      1045000    297.64669   -174.40083   -170.83919   -422.07265   -149.01407 0.00072961463 0.00068979159  0.000549847    3896.8586 
 1040000      1050000    302.02742    690.59745    184.41747   -359.08778   -292.97208 0.00073362168 0.00068561987 0.00055143123    3891.9522 
 1045000      1055000    306.86129    673.75828    126.92934    99.158234    342.83523 0.00073013277 0.00068273155 0.00054838043    3887.0222 
 1050000      1060000    300.23296    329.36952   -339.33516   -350.49929    221.93348 0.00072682376 0.00068240369 0.00054721617    3882.1058 
 1055000      1065000    302.56885   -591.63535    41.956755     295.7402   -153.98904 0.00072537956 0.00068181137 0.00054957336    3877.2182 
 1060000      1070000    297.99642    345.64529     257.0717     243.0134    133.27722 0.00072571373 0.00068098768 0.00054934148    3872.2705 
 1065000      1075000    306.69995    151.34089    333.49804    450.29835   -147.88388 0.00072908588 0.00067642277 0.00055574187    3867.3473 
 1070000      1080000     298.7616    149.53579   -455.88425   -1.9317505   -156.94505 0.00072489411 0.00067167219 0.0005480262      3862.41 
 1075000      1085000    299.17558   -86.367057    168.98633   -139.10223    244.64518 0.00072688953 0.00066569387 0.00053963872    3857.4766 
 1080000      1090000    313.31789     8.426452    97.187476    792.52329    108.56502 0.00072369227 0.00066052179 0.00054306231    3852.5409 
 1085000      1095000    302.64526   -430.59149   -719.72154    -171.1503    74.643349 0.00072006326 0.00065721388 0.00054217714    3847.6228 
 1090000      1100000    298.23745   -54.453199   -74.309051   -456.08964    151.86917 0.00071782079 0.00065312352 0.00053762244     3842.702 
 1095000      1105000    300.03342    242.22819    426.43779    190.84903    239.49255 0.00071434561 0.00066467493 0.00053768616    3837.7497 
 1100000      1110000    296.07612    52.693218   -182.25846   -165.35783      82.1219 0.00071110201 0.00067034158 0.00053488542    3832.8641 
 1105000      1115000    304.09998     74.93965    574.42682    682.22713   -251.06907 0.00071833429 0.00066601553 0.00053078071     3827.936 
 1110000      1120000    295.29247    186.65254    149.24059   -67.180809   -189.90793 0.00071348326 0.00067537862 0.00053057722    3823.0093 
 1115000      1125000    303.93741   -242.08206   -556.96138     307.1061   -650.56239 0.0007098941 0.00068753938 0.00052917551    3818.1029 
 1120000      1130000     299.5265    411.64741      53.1306   -29.361271   -82.783327 0.00070827445 0.00068870895 0.00052473944    3813.2011 
 1125000      1135000     302.0027    157.42446    348.71273   -80.529236   -151.32662 0.00070570758 0.00068733079 0.00052456063    3808.2781 
 1130000      1140000    303.09823   -135.06654   -207.98324   -107.65254   -135.57894 0.00070805677 0.00068400073 0.00052352669    3803.3646 
 1135000      1145000    301.72048    202.53114   -245.24252   -165.73616   -196.37123 0.0007137159 0.00068232218 0.00051951037    3798.4588 
 1140000      1150000    297.75242   -89.971848   -326.44895    42.840614   -30.916683 0.00071079426 0.00068168846 0.00051869264    3793.5327 
 1145000      1155000    305.93483    273.98163     323.4943   -65.914834   -204.55722 0.00070901772 0.00068510723 0.00051572787     3788.632 
 1150000      1160000    304.65411     213.5102   -74.848748    -154.5249   -339.44196 0.0007040999 0.00068592498 0.00051548967    3783.7124 
 1155000      1165000    301.65154   -163.36333    483.95939    -5.053283    222.31945 0.00070241416 0.0006911207 0.00051547058    3778.7798 
 1160000      1170000    304.31163    697.59937   -154.29829   -12.041545    283.07836 0.0007105071 0.00069473595 0.00051717312    3773.8664 
 1165000      1175000    294.98235    262.11653    -381.4538   -346.34633   -111.96618 0.00071230298 0.0006959815 0.00052651842    3768.9428 
 1170000      1180000     295.2139    216.13564    -376.7814    173.31283    114.32131 0.00071832267 0.00069616721 0.00052557019     3764.011 
 1175000      1185000    296.09832    409.28227   -137.18906   -264.58748   -16.378967 0.00071668405 0.00069504283 0.00052125484    3759.0631 
 1180000      1190000    301.65378    427.73238   -167.18053    79.990269     297.6647 0.00071257734 0.00069233877 0.00051812583    3754.1415 
 1185000      1195000    298.63246    282.45014    213.32453   -405.04743    413.48149 0.00071046319 0.00069353859 0.00052131505    3749.2673 
 1190000      1200000    301.61659    99.771566    150.48669    48.110941    121.00082  0.000712187 0.00070370651 0.00051994175    3744.3245 
 1195000      1205000    299.42085    136.47752   -206.00686   -419.13526   -159.75712 0.00070727236 0.00069982642 0.00052433675    3739.4014 
 1200000      1210000    301.99273    599.91193    29.621856    529.74405  -0.65588285 0.00070593819 0.00069608086   0.00052175    3734.4787 
 1205000      1215000    305.22885     203.5655   -377.06816    129.08108    371.68282 0.00070513452 0.00069216034 0.00052263171    3729.5426 
 1210000      1220000    306.90275   -117.28907    422.50226    -56.49441   -127.62632 0.0007042689 0.00068856569 0.00051269937    3724.6205 
 1215000      1225000    300.57065     109.8793    419.38579    169.33844    67.062277 0.00072737153 0.00068893798 0.00051321709    3719.6932 
 1220000      1230000    298.16785    113.54727    631.44926   -258.20373   -61.610169 0.00072883418 0.00068370397 0.00050978424    3714.7586 
 1225000      1235000    298.85203    388.88129    100.23448   -68.740288   -11.533828 0.00073804124 0.00068127182 0.00051021726    3709.7971 
 1230000      1240000     300.4055    -148.4314   -363.48324    389.90071    -373.2422 0.00073423249 0.00068297894 0.00050863362    3704.8696 
 1235000      1245000    305.36058    362.89797   -395.71046    170.79726   -49.560307 0.00073160501 0.00068143778 0.0005092744    3699.9513 
 1240000      1250000    299.25942    164.60287    258.64698   -477.54844    331.37912 0.00072937998 0.00068352863 0.00051691884     3695.041 
 1245000      1255000    299.76539   -122.41034    221.21746   -118.72991   -203.44579 0.00072956661 0.00067959185 0.00051604712    3690.1028 
 1250000      1260000    301.22899   -9.8441437     286.6433    258.24088   -20.655422 0.00072442512 0.00067789941 0.00052117669    3685.1733 
 1255000      1265000    294.22688    37.524507    174.11342   -348.10512    45.448466 0.00071861735 0.00067511783 0.00052010225    3680.3134 
 1260000      1270000    301.43388    385.36381   -113.45887    35.376225   -447.68744 0.0007154561 0.00068160439 0.00051747009     3675.411 
 1265000      1275000    303.90616    744.89196   -68.123474   -308.55576    233.51398 0.00071489798 0.00068169759 0.00051461809    3670.4934 
 1270000      1280000    301.15131   -158.42274    28.755343    -280.5151    25.764407 0.00071333432 0.00068541224 0.00052448425      3665.61 
 1275000      1285000    301.26783   -259.95399   -516.18522   -254.90137     176.2153 0.00071171454 0.00068365431 0.00052368289    3660.6892 
 1280000      1290000     296.6939    181.53566   -493.86343    604.77255   -231.29543 0.00070941164 0.00067974411 0.00052316299    3655.7793 
 1285000      1295000    303.39528    407.28495    355.99342    254.22545   -52.760923 0.0007106863 0.0006756451 0.00051938361    3650.8839 
 1290000      1300000    304.28245   -208.89913   -41.734757     129.4733    -410.4152 0.00071181094 0.00067789598 0.0005148932    3645.9259 
 1295000      1305000    299.90871    353.07981    197.74611    35.680683    133.82041 0.00070880594 0.0006766883 0.00051854205    3641.0139 
 1300000      1310000    294.86496    542.91724   -93.645686    133.57555    122.44833 0.00070684899 0.00067276468 0.00051636336    3636.0788 
 1305000      1315000     300.8834    54.045332    30.532553   -441.13202   -77.113475 0.00070644695 0.0006710222 0.00051216652    3631.1477 
 1310000      1320000    297.54698    8.3208627   -64.255151   -40.781235   -120.13837 0.00070235344 0.0006710622 0.00051756055    3626.1949 
 1315000      1325000     293.8658    40.490647   -314.11753    316.04729    107.94566 0.00070507143 0.00067151069 0.00051465632    3621.2739 
 1320000      1330000    301.68373   -92.757811     165.2993   -873.92805    40.738912 0.00070410444 0.00067338729 0.00051695691    3616.3689 
 1325000      1335000    297.26344    402.62203   -160.91696    522.46806    15.249983 0.00070128736 0.00067314294 0.00051730455    3611.4584 
 1330000      1340000    300.32182    18.314489    11.491715   -30.447411   -68.341261 0.00070047403 0.00067323256 0.00051514611    3606.5422 
 1335000      1345000    298.23931     176.6925    410.72177   -48.497889   -287.96879 0.00069904585 0.00067915915 0.00051539221    3601.6246 
 1340000      1350000     298.2002    279.50677     128.0496    667.05721   -109.50391 0.00069812544 0.00067605859 0.00051445343    3596.6922 
 1345000      1355000    296.97498    88.485969   -159.69692    148.25029   -107.95944 0.00070060938 0.00067658146 0.00052584596    3591.7505 
 1350000      1360000    304.48647    275.38018    41.861893    402.46181    270.83879 0.00069541078 0.00067410255 0.00052301423    3586.8361 
 1355000      1365000    295.39214   -14.767499    312.69366    240.81362    106.99464 0.00069468468 0.00067470229 0.00053345711    3581.9206 
 1360000      1370000    300.29003    611.21857   -209.75878   -228.08907   -214.88955 0.00069616584 0.00067204659 0.00052717556    3577.0233 
 1365000      1375000    298.17421    388.86745   -40.945091   -85.586979   -35.895357 0.00069320653 0.00066859436 0.00052555409     3572.091 
 1370000      1380000    308.84448     555.7767   -79.736103   -106.49991   -449.75272 0.00068973962 0.00066837822 0.00052421318    3567.1751 
 1375000      1385000    300.02675    404.78437    -2.611908     -183.278    41.387403 0.00068618307 0.00067027425 0.0005339702    3562.2682 
 1380000      1390000    302.57654   -168.39366     491.4005   -160.61634    113.04692 0.00068378644 0.00067828508 0.00053665023    3557.3613 
 1385000      1395000    292.63421   -504.11043     68.04859   -351.64833     206.7387 0.00068208899 0.00066985058 0.00053579477    3552.4327 
 1390000      1400000    296.36739   -59.512135    118.28722   -233.17317   -356.86383 0.00068005912 0.00066158138 0.00053928814    3547.5128 
 1395000      1405000    299.69568    473.81086   -540.80955   -120.38592   -567.89091 0.00067912688 0.00065905254 0.00053820788    3542.6361 
 1400000      1410000    300.00489    85.100465   -104.57415    329.26394   -218.51327 0.00067497293 0.00065943997 0.00053834122    3537.7022 
 1405000      1415000    301.02085    141.98269    21.381902   -121.99879     69.05995 0.00067549133 0.00066044816  0.000537299    3532.7732 
 1410000      1420000    296.88682    254.52109    171.64142    338.64943    9.9638617 0.00067694256 0.00065953498 0.00053936345    3527.8586 
 1415000      1425000    297.36301   -310.77989    57.219399   -238.82331    138.83059 0.00067543833 0.00065659791 0.0005376656     3522.932 
 1420000      1430000    297.85158    268.21014    -22.23286    258.91606   -63.069653 0.00067532948 0.0006536912 0.00053613478    3518.0216 
 1425000      1435000     310.5795    286.64634    580.49632   -283.16487   -74.059906 0.00067577669 0.00065073524 0.00053732482     3513.086 
 1430000      1440000    299.59652    857.07699    436.76288    9.2612984   -333.92821 0.00067322863 0.00064813482 0.00053551188     3508.166 
 1435000      1445000     296.4977   -216.59985    140.69995    409.27087   -80.165041 0.00067705968 0.00065049318 0.0005354119     3503.232 
 1440000      1450000    302.85321    78.988437   -221.80436   -255.56304   -332.94835 0.00067554576 0.00065383351 0.00053372314    3498.2961 
 1445000      1455000    299.93329    9.1348049    81.609698    288.84271   -619.75657 0.00067174557 0.00065216592 0.00053167255    3493.3745 
 1450000      1460000    301.61506    365.24714    602.71586    467.96857   -16.481669 0.00066975876 0.00065116092 0.00052946871    3488.4356 
 1455000      1465000    292.25875    46.900786   -274.16047    25.838994    -478.2161 0.00067342472 0.00065225127 0.0005280297    3483.5054 
 1460000      1470000    294.03351    47.316354   -10.370629   -515.09391   -474.67554 0.00066837339 0.0006605854 0.00052734794    3478.5782 
 1465000      1475000    302.74299    84.205692   -308.38995   -69.720715   -112.62622 0.00066646252 0.00065936489 0.00052470374    3473.6635 
 1470000      1480000    300.35677   -200.77595   -132.70096    13.723121     4.614712 0.00066573308 0.0006581555 0.0005298839    3468.7347 
 1475000      1485000     299.3806   -401.43434     382.0484   -485.16075    343.90108 0.00066698449 0.00065719565 0.00054176436    3463.8337 
 1480000      1490000    296.31626    657.41048     244.3607    351.35848    126.42738 0.00066604913 0.00065434731 0.00053679675    3458.9013 
 1485000      1495000    296.86036    691.25894   -474.51656     168.1771    97.747594 0.00066603769 0.00065089757 0.00053606307    3453.9825 
 1490000      1500000    296.75469    210.82691    100.82373    141.79423   -167.62727 0.00066421994 0.0006488626 0.00053662377    3449.0891 
 1495000      1505000     295.8735    137.65424    331.71365    231.60431    130.01126 0.00066323402 0.00064948429 0.00053705194    3444.1728 
 1500000      1510000    290.11715   -521.88969   -148.20227    325.06818    -749.5506 0.00066022988 0.00065409378 0.0005345117    3439.2216 
 1505000      1515000    303.38671   -38.225271   -158.64062    66.585487    388.47115 0.00065930867 0.00066302739 0.00053352893    3434.2878 
 1510000      1520000    300.42774   -263.16785   -63.444817   -223.26186    -295.3698 0.00066040145 0.00066249728 0.00056033237    3429.3671 
 1515000      1525000    302.15021   -147.47432   -13.613705    160.41904    347.00125 0.00065925865 0.00066188125 0.00055442432    3424.4612 
 1520000      1530000    302.26867   -509.42799    -334.7423    304.61524    358.28379 0.0006558775 0.00065896645 0.00055249626    3419.5509 
 1525000      1535000    299.47202    221.72522   -304.34533   -545.58894   -52.461517 0.00065392453 0.00065833307 0.00055112211      3414.63 
 1530000      1540000     301.0841   -245.52396    198.16734    525.16714    115.88804 0.0006547624 0.00065437728 0.00055751751    3409.7189 
 1535000      1545000    302.24294    266.63786    153.51789    16.400315   -216.59054 0.00065236213 0.00066637856 0.00055652808    3404.8017 
 1540000      1550000    309.01669   -163.83762    193.03078   -29.791854   -221.82687 0.00065226975 0.00068259415 0.00055556743    3399.9013 
 1545000      1555000    293.26007    5.5343973   -517.42059    52.304349    164.10992 0.00065076426 0.00067899991 0.00055392886    3394.9887 
 1550000      1560000    294.27164    4.0043297     249.0823   -457.87315    192.68966 0.00065433438 0.00069484944 0.00055346724    3390.0752 
 1555000      1565000    304.66908    332.45637    570.76194    -275.9977    -150.7118 0.00065043173 0.00070879462 0.00055994305    3385.1592 
 1560000      1570000    301.53253     205.5012    -161.7821    505.31735   -110.52802 0.0006488553 0.00070724978 0.00056657496    3380.2359 
 1565000      1575000     302.0562    111.33946    -672.3093    268.45035   -472.50672 0.00064759329 0.00070339775 0.00057186881    3375.3185 
 1570000      1580000     299.9685    265.58771    490.14209     10.57946   -394.07854 0.00065195574 0.00070102592 0.00057034614    3370.4105 
 1575000      1585000    301.28689   -94.583988     -238.364   -507.51002   -155.57296 0.00066175354 0.0006985204 0.00056879454    3365.4936 
 1580000      1590000    296.87489     391.9034   -109.76542   -347.78538   -350.26321 0.00066012455 0.00069277341 0.00056617402    3360.5808 
 1585000      1595000    299.86981    70.842715   -207.06627   -118.52671    377.61658 0.00065805455 0.00069053252 0.00056505064    3355.6568 
 1590000      1600000      298.613   -211.80482    225.03498    117.40136    456.15065 0.00065617003 0.00068791239 0.00056364433    3350.7059 
 1595000      1605000    307.74553     36.45883    87.192285     4.224243   -501.86939 0.00065682116 0.00068595736 0.0005654388    3345.7901 
 1600000      1610000    294.85181    4.2138546    275.75714   -198.64543   -623.86896 0.00065118035 0.0006828844 0.00056503769    3340.8793 
 1605000      1615000    295.31957    201.06819   -249.02378    234.43634    59.385231 0.00065165919 0.00068586985 0.00056157319    3335.9663 
 1610000      1620000     298.3192   -24.783258    409.39943   -98.336931    174.13147 0.00065823482 0.00068356774 0.00056384037    3331.0523 
 1615000      1625000    298.81841    50.835032    112.02069    231.51381    191.23173 0.00066362287 0.00068433911 0.00056082096    3326.1249 
 1620000      1630000    301.88635   -24.086656   -501.97325    234.86593   -1.2499652 0.00066479031 0.00068128583 0.00055992725    3321.1966 
 1625000      1635000    299.30883    -408.9314   -51.486442   -406.48214   -42.086394 0.00066714777 0.00067978387 0.0005593236    3316.2812 
 1630000      1640000    302.07708    224.77177   -164.77912    190.64032    21.682213 0.0006598513 0.00067742429 0.00055752033     3311.383 
 1635000      1645000    303.95993   -159.02093    -395.0002     185.7163    -128.1748 0.00065965496 0.0006724021 0.00055673539    3306.4713 
 1640000      1650000    303.06501    191.48877   -29.831328   -260.96254    92.652541 0.00065864821 0.00066448959 0.00055529784    3301.5469 
 1645000      1655000    298.35429   -398.19738    251.97344    11.971159   -8.6046568 0.00065855355 0.00066328492 0.00055428681    3296.6085 
 1650000      1660000    295.00071   -206.39628    -182.5482    342.46156    -261.5361 0.00065802073 0.00066340841 0.00055520472    3291.7132 
 1655000      1665000    295.82407    327.25742    254.14068   -175.69889   -124.04075 0.00065546609 0.00066109138 0.00055937878    3286.7957 
 1660000      1670000    302.53323    446.31369   -225.91844   -411.44178    157.69254 0.00065546597 0.00065964774 0.00055800905    3281.9015 
 1665000      1675000    301.10001    29.132482    164.72028   -177.84811    67.687834 0.00065576461 0.00065934204 0.00055702194    3276.9734 
 1670000      1680000    297.26675    -90.89579     236.8748   -72.975101   -189.63169 0.00065328577 0.00065756833 0.00055573937    3272.0628 
 1675000      1685000    295.77624    170.06777    88.292093    40.013329    -235.2651 0.00065082721 0.00065496003 0.00055357047    3267.1518 
 1680000      1690000    300.83162    128.36587    -270.6102    52.132903   -380.92769 0.00064953826 0.00065463741  0.000551761    3262.2289 
 1685000      1695000    299.04396    666.73018    74.691131    27.207784   -237.32535 0.00064989896 0.00065471367  0.000551598    3257.3203 
 1690000      1700000     302.7001    272.04168   -235.13062   -154.61814   -334.55842 0.00064754643 0.00065354344 0.00055257938    3252.3958 
 1695000      1705000     294.9923    487.84688    184.25072    8.7373676   -620.29791 0.00064527128 0.00065097336 0.00055138249     3247.484 
 1700000      1710000    300.84147    553.39177   -289.17658   -108.23706    131.33799 0.00064832928 0.00065003277 0.0005539167    3242.5703 
 1705000      1715000    300.57755    141.91605    389.45115    -51.77872    115.11395 0.0006433837 0.00064850049 0.00055651276    3237.6216 
 1710000      1720000    292.33428    575.62547    297.78146    134.74092   -99.358236 0.0006510842 0.00064635219 0.00055498668    3232.7008 
 1715000      1725000    299.63765   -273.05953    48.531983   -239.31911    495.13814 0.00066196959 0.00064479417 0.00055889641    3227.7663 
 1720000      1730000    299.34978    334.33869   -34.324942   -422.18894    637.04677 0.00066206749 0.00064764305 0.00055992418     3222.859 
 1725000      1735000    297.79009    34.436572   -305.00701    91.768417    1.0275907 0.00066169241 0.00064615222 0.00055671556    3217.9616 
 1730000      1740000    293.42969   -40.557553    100.35325    180.02607   -6.0524252 0.0006600997 0.00064408235 0.00055892116    3213.0593 
 1735000      1745000    304.39613   -429.67582    279.75451   -60.175949    62.152336  0.000658889 0.00064381732 0.00056096632    3208.1511 
 1740000      1750000    300.41539    -133.2963    559.11129    145.32472   -39.912759 0.00065775546 0.00065008605  0.000566435    3203.2304 
 1745000      1755000    300.09766   -4.5662816    46.884108   -820.05495    216.03697 0.00065568287 0.00064883925 0.00056140185    3198.3353 
 1750000      1760000    298.40703    -63.90868    211.48635   -431.42743    51.109051 0.00065872731 0.00065058593  0.000559046    3193.4172 
 1755000      1765000     300.6968   -284.86598   -376.93587    131.63968   -6.9802969 0.00065714982 0.00065402443 0.0005599781    3188.5015 
 1760000      1770000    296.55855    424.99369   -42.082786   -280.32637   -40.219016 0.00065688415  0.000652892 0.00055829781    3183.5953 
 1765000      1775000    304.58022   -197.94308    197.62316   -385.84175    -16.11012 0.00065532662 0.00065083505 0.00055675129    3178.6624 
 1770000      1780000    298.58136    82.779919   -126.61028    35.499854   -669.17628 0.00065445546 0.00064857415 0.00055529599    3173.7608 
 1775000      1785000    303.82536    118.79101    495.74697    7.9201643    323.78869 0.00065340148 0.00064720821 0.00055853424    3168.8352 
 1780000      1790000    300.35026    -101.1105    355.51983    142.34762   -579.87736 0.00065229649 0.00064513235 0.00055691417    3163.9135 
 1785000      1795000    306.08266    -33.78677    171.80888   -520.49134   -682.98385 0.00065183372 0.00064808349 0.00055797996     3159.012 
 1790000      1800000    289.46036   -26.967016    108.99554   -350.36773    311.25062 0.00065447129 0.00064850206 0.00056152403    3154.1205 
 1795000      1805000    301.57266    47.360619    27.224369    307.30805    244.92265 0.0006601276 0.0006464197 0.00056655193    3149.2057 
 1800000      1810000    306.30825    435.27651    14.852767   -186.84633    54.601469 0.00065807123 0.0006452894 0.00056311209    3144.2998 
 1805000      1815000    294.23026    398.59781   -178.89062    67.128787   -184.69803 0.00066667825 0.00064302303 0.0005627456    3139.3859 
 1810000      1820000    298.26004    251.83713    33.722526    29.945487    336.51574 0.00067304293 0.00064158269 0.00057511569    3134.4763 
 1815000      1825000    307.21049    54.032278   -6.1720994   -235.22359   -35.668928 0.00067231413 0.00064540979 0.00057135891    3129.5609 
 1820000      1830000    304.47774     1.287763   -131.05639    53.486465    125.46717 0.00067203773 0.00064421304 0.00057084366    3124.6422 
 1825000      1835000    307.33926    334.57624    155.81724    29.693689    -32.29846 0.00066874324 0.00064243927 0.00057369631    3119.7185 
 1830000      1840000    297.63377   -509.65667    72.223884   -234.14976    61.363384 0.00067796092 0.00064788803 0.00057325542    3114.8033 
 1835000      1845000    298.28609    693.11041    213.04025   -33.919943   -152.86959 0.00068550892 0.00065299053 0.00057362318    3109.8812 
 1840000      1850000    300.25747    -433.4318   -584.99195    503.02451    -247.1692 0.0006869515 0.00065309665 0.00057680489    3104.9649 
 1845000      1855000    303.40932    141.01114    126.14994   -159.87268   -5.0905708 0.00068673239 0.00064995312 0.00057998096    3100.0598 
 1850000      1860000    304.70117   -265.67773   -166.88127    245.57743    72.609666 0.00068668606 0.00064856927 0.00057864582    3095.1346 
 1855000      1865000    306.97434    66.041763    161.72315   -47.345472   -181.73624 0.00068406513 0.0006484341 0.00058409452    3090.2152 
 1860000      1870000    300.68243    119.60949    -287.9076   -296.46379   -91.891356 0.00069127454 0.00064638986 0.00058475339      3085.29 
 1865000      1875000    298.89611    527.39853     69.02137   -93.393416   -257.81462 0.00069163072 0.0006549327 0.00058321906    3080.3781 
 1870000      1880000    300.02109   -63.787228    305.38813    75.325628   -133.62002 0.00069740853 0.00065390475 0.00058111684    3075.4527 
 1875000      1885000    296.60102    21.549847   -337.40522     145.6089   -175.27287 0.00069606235 0.00065251531 0.00058712021    3070.5438 
 1880000      1890000    301.96165    145.43374    321.46327   -171.57472    211.16173 0.00069417456 0.00065163333 0.00058685606    3065.6252 
 1885000      1895000    298.97025   -92.162315    35.082205    102.69204    264.01029 0.00069563904 0.0006512895 0.00058468951    3060.7021 
 1890000      1900000    308.20684    250.60584    10.562614     164.3316    56.161464 0.00069303781 0.00064984921 0.0005879802    3055.7829 
 1895000      1905000    295.29276   -145.84154   -574.25265    685.39251    -694.0933 0.00069038811 0.0006623361 0.00058718423    3050.8617 
 1900000      1910000    295.77696   -18.608644    103.12584    403.72014    249.23763 0.00068937238 0.00065707624 0.00059542906    3045.9384 
 1905000      1915000    295.02234   -103.79193    67.427463   -554.54634    31.844211 0.00068837886 0.00065427468 0.0005939908    3041.0167 
 1910000      1920000    299.21687    316.76101   -185.49041   -153.14135    42.607073 0.00068879205 0.00065645353 0.00059264765    3036.1018 
 1915000      1925000    305.86107   -354.39769    233.66846   -183.55618     214.9896 0.00068546774 0.00065571814 0.00059568693    3031.1771 
 1920000      1930000    296.07458   -589.09362   -554.03148   -375.21292    388.44564 0.0006840185 0.00065596794 0.00059018769    3026.2711 
 1925000      1935000    303.51885    396.32827   -113.54148    366.19332    610.07112 0.00068281064 0.00066281723 0.00058946066    3021.3716 
 1930000      1940000    295.84657    47.970737   -429.86495   -57.955218    73.144414 0.00068233964 0.00066166761 0.00058831294    3016.4733 
 1935000      1945000    298.72042     292.6597   -429.81222    -143.9432    13.077721 0.00068240303 0.00065855189 0.00058716237    3011.5639 
 1940000      1950000    292.32701   -32.780787   -21.231318   -504.80136    -16.17875 0.00068163774 0.00065669775 0.00059311673     3006.653 
 1945000      1955000     302.3822    222.02706   -110.59527    363.48284   -685.43686 0.00068049619 0.00065825036 0.00059195042    3001.7537 
 1950000      1960000    308.75615    402.17941    346.40659   -421.90549   -512.12389 0.00068334647 0.00065770306 0.00059275983    2996.8482 
 1955000      1965000     307.6454    230.53948   -452.43989   -183.23782    618.14934 0.00068055986 0.00065618189 0.00059042412    2991.9355 
 1960000      1970000    302.06949   -673.92835   -360.24922   -369.87184     66.22954 0.00067962629 0.0006550077 0.00059008265    2987.0202 
 1965000      1975000    305.94228     116.0432   -327.31098    150.85775    7.4990255 0.00067809728 0.00065626874 0.00058780355    2982.1009 
 1970000      1980000     300.8192    399.72682    20.425319    137.28111   -408.01907 0.0006798876 0.0006576484 0.00058773856    2977.1722 
 1975000      1985000    294.56267    627.69674    64.264652    407.43768    180.53585 0.00067732633 0.00065502648 0.00058825159    2972.2562 
 1980000      1990000    291.80173    35.939616   -84.172845   -470.11884   -234.37941 0.00067763849 0.00065587702 0.00058726194    2967.3584 
 1985000      1995000    299.66207    530.33602   -362.87765   -390.64332    462.74824 0.00067548156 0.00065571235 0.00058633821    2962.4323 
 1990000      2000000    310.96743     391.3651   -100.80043    413.63418    60.019853 0.00067461257 0.00065426516 0.00058539381    2957.5188 
 1995000      2005000    303.73708    46.228838    133.79518   -355.20611    323.12933 0.00068199756 0.00066601635 0.00058456816    2952.5992 
 2000000      2010000    307.97728   -257.55464    150.98345   -187.18081    -180.4531 0.00069198573 0.00066130866 0.00059388927    2947.6939 
 2005000      2015000    306.28637    425.89512   -151.90182   -241.79678    -125.5785 0.00068988672 0.00066264295 0.00059365828    2942.7841 
 2010000      2020000    294.68947    440.01241    12.751107   -493.98073    31.419771 0.00068855419 0.00066478851 0.00059053119    2937.8753 
 2015000      2025000    301.31169    350.96299   -79.415494   -483.97769    315.58643 0.00068742661 0.00066428728 0.0005908983    2932.9362 
 2020000      2030000    295.39146    306.95622    -311.3539   -417.70067   -204.23494 0.0006897631 0.0006695209 0.00059017548    2928.0091 
 2025000      2035000    303.67588    411.81307   -103.31816    58.659046   -167.35704 0.00069185889 0.00066822822 0.00058898529    2923.0997 
 2030000      2040000    298.55261   -57.812431    3.3925242   -222.34059    44.076918 0.00070206554 0.00066719269 0.00059020104    2918.1981 
 2035000      2045000    303.41079    520.17584    188.38363    109.49261    -589.2267 0.00070331871 0.00066618109 0.00058722353    2913.2903 
 2040000      2050000     302.5161    243.18879    301.86437    109.74822    67.652261 0.0007023869 0.00066618662 0.00058577837    2908.3678 
 2045000      2055000    308.45996    45.541039    19.246762    206.93661   -373.73485 0.00070109067 0.00066584585 0.00059261632    2903.4501 
 2050000      2060000    304.79029   -103.04951    254.04195   -218.04316    -56.28331 0.00069920107 0.00066800253 0.00059429195    2898.5261 
 2055000      2065000    298.59338    -125.9669    95.224864   -109.60189    24.291952 0.00069819391 0.00066668893 0.00059342788    2893.6178 
 2060000      2070000    298.07054    229.32307    31.564433   -28.051011   -570.94989 0.00069961699 0.00066535158 0.0005930348    2888.7134 
 2065000      2075000    301.61012    400.26765   -581.84391   -128.82933   -44.821024 0.00069953747 0.00067357104 0.00059419026    2883.7887 
 2070000      2080000    296.22736    380.01933   -604.68977   -73.310035   -310.61969 0.00070768153 0.00067647705 0.00059647805    2878.8621 
 2075000      2085000    301.85603     306.3626   -41.963107   -40.579461     392.8483 0.00070575009 0.00067475077 0.00059598445    2873.9564 
 2080000      2090000    302.52399   -145.48048    198.15534   -48.442723    18.316811 0.00070406464 0.00068085463 0.00059446268    2869.0484 
 2085000      2095000    304.04655    392.01928    119.14861   -97.841192   -61.995669 0.00070421136 0.00067854451 0.00059419148    2864.1344 
 2090000      2100000     298.7796   -30.401809    170.30062   -68.470177   -176.24001 0.00070313477 0.00067505702 0.00059223283    2859.2176 
 2095000      2105000     300.8535    389.59434   -392.76733     214.9272    86.404205 0.00070271025 0.00067171977 0.00059149378    2854.3029 
 2100000      2110000    298.38201    229.85127    355.62113   -26.680696    249.43731 0.00070229528 0.00066618086 0.00059262751    2849.3821 
 2105000      2115000    302.18676   -196.76879   -30.787925    -160.9878   -140.37732 0.00069990479 0.00066727289 0.0005887556    2844.4686 
 2110000      2120000    303.06451    291.64968    434.27555   -444.20086    -333.2019 0.0006975665 0.00066619665 0.00058791894    2839.5496 
 2115000      2125000    304.75918    104.19404   -204.75169    353.73423   -453.51917 0.00069522514 0.00066883299 0.00058603132    2834.6393 
 2120000      2130000    297.10011    118.46069    -94.50169   -359.99546     182.5996 0.00069343945 0.00066926188 0.00058522106    2829.7264 
 2125000      2135000    306.42445    298.10835   -264.22168    -65.66248   -34.936392 0.00069200832 0.00066703362 0.00058555792    2824.8162 
 2130000      2140000    296.41236    208.25901   -92.360247    -206.3588    73.337033 0.00069068589 0.00066621703 0.00058715319    2819.8973 
 2135000      2145000    298.28631   -261.71749   -100.91673   0.41302821   -182.27987 0.00069026393 0.00066533628 0.00058444414    2814.9781 
 2140000      2150000    303.71402   -340.89719   -174.89044    -290.7728   -138.49009 0.00068678233 0.00066395698 0.00058911878    2810.0541 
 2145000      2155000    300.96063    580.24598   -190.28172    121.69035   -1.9051041 0.00068468484 0.00066236471 0.00058988353    2805.1288 
 2150000      2160000    298.09796    45.370038    48.409703   -370.70718    143.70177 0.00069044469 0.00066317437 0.00059258499    2800.2051 
 2155000      2165000    294.28983    333.56508   -199.89976    134.98214   -194.20496 0.00069159866 0.00066190651 0.00059349926    2795.2882 
 2160000      2170000    298.38821    139.72931    530.82066   -409.95675    94.873419  0.000694685 0.0006609631 0.00059162307    2790.3769 
 2165000      2175000    300.35784    34.478349    432.08065     285.1288   -144.34893 0.00069185574 0.00066110648 0.00059455854    2785.4565 
 2170000      2180000    298.42672   -266.59809   -138.19066     7.746217   -341.21135 0.00069289972 0.00066018297 0.00059330363     2780.529 
 2175000      2185000    295.80331    442.51656     285.4271    11.585651    280.73372 0.00069216818 0.00065967065 0.00059232558    2775.6042 
 2180000      2190000       304.31    -350.7952    23.570744   -26.550565   -552.98385 0.00069016678 0.00065778196 0.00059392638    2770.6836 
 2185000      2195000    298.49871    426.44789   -264.66204   -32.187778   -279.90853 0.00068958406 0.00065755026 0.00059156151    2765.7788 
 2190000      2200000    299.94688    573.98333    122.51035   -68.157763   -156.25018 0.00069002809 0.00065661339 0.00059421585    2760.8715 
 2195000      2205000    293.50064    591.99591   -273.38784   -744.63852    517.67031 0.0006891817 0.00065568058 0.00059065775    2755.9688 
 2200000      2210000    301.10501     482.3053    402.29831    61.933783    203.87367 0.00068702923 0.00065392791 0.00059605504    2751.0517 
 2205000      2215000     304.2301     261.9994   -228.12141   -163.85299    187.29175 0.00068737895 0.00065245589 0.00059553349    2746.1487 
 2210000      2220000    301.45752     218.0881    108.11687   -421.32803     463.8614 0.00069238428 0.00065262991 0.00059766474    2741.2217 
 2215000      2225000    298.16534   -147.35329   -145.64569   -134.51208   -362.05398 0.00069267153 0.00065229733 0.00059634962    2736.3002 
 2220000      2230000     296.4928   -20.212483   -68.204453   -41.942815   -159.55198 0.00069207073 0.00065765014 0.00059527373    2731.3832 
 2225000      2235000     304.6813   -155.23313    150.54604    284.72121     49.45124 0.00069178929 0.00065290615 0.00059420333    2726.4744 
 2230000      2240000    300.07264   -131.34713     130.6138    277.14971    616.61061 0.00069018493 0.00065160053 0.00059312029    2721.5596 
 2235000      2245000    298.03423    256.01495    164.32907    351.57048    286.28421 0.00068857594 0.00065057436 0.00059081026    2716.6474 
 2240000      2250000    302.56937    -28.16604    104.82894    142.57403   -132.24909 0.00068704775 0.00065149342 0.00059035497    2711.7522 
 2245000      2255000    298.69027    60.948526    127.80723    682.11241   -39.110961 0.00068596271 0.00065113247 0.00059113782    2706.8414 
 2250000      2260000    295.67926   -10.864576    93.945233    329.88575    44.246091 0.00068420812 0.00065182068 0.00059017651    2701.9293 
 2255000      2265000    302.56802    797.08256   -152.36724   -585.68222    198.93485 0.00068773281 0.00065699467 0.00058776266     2697.016 
 2260000      2270000    303.21734    366.96638   -165.20765   -39.554485    331.61419 0.0006850314 0.00065925656 0.00058676698    2692.1011 
 2265000      2275000    291.61056    177.62527   -250.19555   -492.53003   -339.07709 0.00068392528 0.00065763545 0.00058782262    2687.1771 
 2270000      2280000    300.28527    534.53779   -477.14158    199.49962   -381.62638 0.00068635559 0.00065630479 0.00058757337     2682.257 
 2275000      2285000    297.29452    308.91148    213.32648   -140.29704    130.08822 0.00068846397 0.00065573552 0.00058538438    2677.3388 
 2280000      2290000    303.77131    497.63946    83.851919    180.89358   -44.443044 0.00069706348 0.00065792235 0.00058847773    2672.4357 
 2285000      2295000    299.69842    51.492889   -78.154734     206.8985   -18.241661 0.00069438116 0.00065535152 0.00058979895    2667.5122 
 2290000      2300000    295.03187    455.95389   -277.08743    -234.2617    168.51382 0.00069251443 0.00065472746 0.00059409248    2662.5947 
 2295000      2305000     298.6586     50.29326   -170.97729    542.42591    659.27263 0.00069313579 0.00065359546 0.00058812912    2657.6723 
 2300000      2310000    291.25446    261.36745    469.68756    297.69175   -244.08596 0.00069152632 0.00065241544 0.00058868803    2652.7567 
 2305000      2315000    300.39996    64.645004   -464.40107    135.19851    210.50037 0.00069367898 0.00065079547 0.00059002011    2647.8367 
 2310000      2320000    301.29267    50.351117   -425.34484   -263.74597   -345.18442 0.00069317052 0.00064885563 0.00058897263    2642.9285 
 2315000      2325000    300.78814    932.53871   -564.69653    587.85845   -243.49012 0.00069192725 0.00064967658 0.00059053764    2638.0161 
 2320000      2330000    303.86122    443.61279    48.958317    294.26395     477.8698 0.00069945259 0.00065232663 0.00058919712    2633.0936 
 2325000      2335000    300.98076    89.757593   -22.519651   -75.961258   -161.41499 0.00069811086 0.00064962106 0.00059078984    2628.1859 
 2330000      2340000    300.57991   -209.73777    213.79203   -150.23933    297.19905 0.00069743266 0.00064836593 0.00058934289    2623.2668 
 2335000      2345000    302.98511    328.10731    150.44902   -165.18379   -505.05891 0.00069430779 0.0006464964 0.00058765961    2618.3566 
 2340000      2350000    303.47507     427.3466   -83.820628    44.742614    148.89137 0.00069297252 0.00064483627 0.00058621353    2613.4421 
 2345000      2355000    300.26867    97.348732   -204.80095    59.955763   -90.493529 0.00069916882 0.0006446823 0.00058866998    2608.5321 
 2350000      2360000    304.37321   -136.06302   -238.87595   -208.93755   -82.506255 0.00069424977 0.00064567627 0.00058711458    2603.6171 
 2355000      2365000    299.57045    276.78636   -184.75844   -390.88112    487.23571 0.00069273305 0.00065314466 0.00058660598    2598.6938 
 2360000      2370000     293.0701   -338.77004   -285.63921   -146.90216   -236.02524 0.00069457441 0.00065081907 0.00058304102    2593.7831 
 2365000      2375000    302.60578    487.14186    233.93023    102.17158   -30.805347 0.00069254957 0.0006490974  0.000583467    2588.8842 
 2370000      2380000    300.03534   -194.98385    16.415368    54.618928   -556.24024 0.00069308566 0.00065237653 0.00058851636     2583.971 
 2375000      2385000    300.11664    378.91643    174.72444    331.33009    103.16517 0.00069291832 0.00065363738 0.00058817527    2579.0515 
 2380000      2390000    300.92466   -251.49785   -192.83906    -100.8333    245.91526 0.00069095155 0.00065167147 0.00058682265    2574.1362 
 2385000      2395000    309.77294   -149.64128   -99.072485    52.363492     362.7847 0.00069152062 0.00065047697 0.00058849962    2569.2143 
 2390000      2400000    304.12233    311.15646   -429.49704    406.84285      29.2297 0.00069233838 0.00064962961 0.00058805079    2564.2969 
 2395000      2405000    296.01303   -231.21477   -214.67515     205.2643    259.62304 0.00069346248 0.00065139676 0.00059519226    2559.3825 
 2400000      2410000    291.79181    436.06151    212.36369    102.95146    682.76494 0.00069100741 0.00064751346 0.00060119508    2554.4796 
 2405000      2415000    298.32961    51.673536   -170.52027   -182.86692   -356.62364 0.00069130743 0.00064615781 0.00060050282    2549.5664 
 2410000      2420000    302.83306   -300.90136    221.44052    176.85896   -189.68147 0.00069007222 0.00064453118 0.00060081318    2544.6561 
 2415000      2425000     301.3982   -101.31002    35.072052   -934.76438    -303.4678 0.00068961107 0.00064901445 0.00060024768    2539.7439 
 2420000      2430000    299.32453    78.504345    207.73976   -233.69777   -346.76875 0.00068814425 0.00064664965 0.00060125702    2534.8291 
 2425000      2435000    305.52777    360.31607    176.40454    32.687284     63.42239 0.00068661637 0.00064565126 0.00060011666    2529.9144 
 2430000      2440000    302.39513   -289.18304   -115.55184    141.44307   -211.45346 0.00068586031 0.00064448534 0.00059896384     2525.008 
 2435000      2445000    297.44281    83.819029    300.65655   -116.30751    468.45897 0.00068594544 0.0006428674 0.00059734444    2520.0972 
 2440000      2450000    306.49475   -84.815514   -530.95768    343.46739    59.975841 0.00069278668 0.00064368042 0.00059609172    2515.1877 
 2445000      2455000    302.12467    153.22697     91.67761   -98.922405    103.55744 0.00069438115 0.00064298591 0.00059514581    2510.2761 
 2450000      2460000    301.05043     705.5612   -294.23509    343.79895    308.03801 0.0006933248 0.00064232241 0.0005970815    2505.3486 
 2455000      2465000    307.50733   -94.538763    244.81226   -556.26952    330.70056 0.00069184314 0.00064178344 0.00059701228    2500.4276 
 2460000      2470000    301.23646   -86.133804    423.57021    559.92557    545.34498 0.00069129317 0.00064113274  0.000600485    2495.5226 
[...]
 4360000      4370000    306.53284    655.20991   -286.55345    89.228866   -490.71613 0.00074145425 0.00064958211 0.00058699622    630.04559 
 4365000      4375000    297.07535    318.55024   -3.5967989     557.6858   -56.863032 0.00074187755 0.00064841326 0.00058602708    625.13477 
 4370000      4380000     297.6904    321.16181   -283.13193   -218.46778     389.1864 0.00074245612 0.00064742227 0.00058470997    620.22536 
 4375000      4385000    298.03679    95.159749   -18.961202   -198.82229    56.051957 0.00074244696 0.00065022418 0.00058436848     615.3151 
 4380000      4390000    298.17015    46.090903    120.38764    483.98804   -158.89671 0.00074115074 0.00065199595 0.00058356488    610.40427 
 4385000      4395000    298.83318   -403.19134   -173.72672   -28.077846   -18.412045 0.00073950152 0.00065109672 0.00058315153    605.49401 
 4390000      4400000    301.16041    131.33674    512.08355   -298.44473   -24.006206 0.00073888754 0.00065058669 0.00058220188    600.58295 
 4395000      4405000    301.21182    105.45258    16.808011    205.94132   -7.9177547 0.0007399689 0.00065098245 0.00058301498    595.67247 
 4400000      4410000    295.67247    469.31032   -534.85711    484.52888    -25.80549 0.00073989463 0.0006494431 0.00058219276    590.76236 
 4405000      4415000    304.98014   -147.14595     508.7627     98.02224   -523.09163 0.00074027313 0.00064831243 0.00058258596    585.85244 
 4410000      4420000    302.18383    319.26244    353.77907   -170.91338    264.68011 0.00073932242 0.00065013046 0.00058085092    580.94078 
 4415000      4425000    297.74033   -85.520444   -352.96701   -294.48352    304.97056 0.00073717715 0.00065054453 0.0005805442    576.03034 
 4420000      4430000    299.31658    430.68596   -45.741139    683.64647   -361.66731 0.00073649648 0.00065098787 0.00057973612    571.11798 
 4425000      4435000    297.52582    196.28754   -5.2397599    459.45242    133.35154 0.00073602755 0.00064937429 0.00057848551    566.20579 
 4430000      4440000    300.67122    19.214783    307.47797   -192.52054   -67.294795 0.00073539922 0.00064915306 0.00057754118    561.29314 
 4435000      4445000    303.82485   -112.46865   -77.354989    248.72053   -142.14666 0.00073620832 0.00064838535 0.00057868825    556.38108 
 4440000      4450000    302.26896   -170.98181    147.48429    145.79457    328.58751 0.00073538759 0.00064806944 0.00058056266    551.46721 
 4445000      4455000    296.69153    159.06142    442.74815    334.86209   -290.65451 0.00073441473 0.00065410768 0.0005823456    546.55461 
 4450000      4460000    305.11504     7.543165   -26.238803    151.66898    72.121283 0.00073447259 0.00065220425 0.00058018344    541.64103 
 4455000      4465000    302.98315    93.848104    5.0185156    107.68177   -196.95099 0.00073459376 0.00065227288  0.000586394    536.72652 
 4460000      4470000    300.97365    329.11927   -75.839702    250.34063    242.97244 0.00073462057 0.00065365044 0.00058593953    531.81233 
 4465000      4475000    299.56738   -296.54848    70.378711    96.571152   -198.34007 0.00073383741 0.00065712634 0.00058517262    526.89952 
 4470000      4480000    295.01911   -60.965798   -261.94022   -19.087522   -304.55149 0.00073423741 0.00065705231 0.00058438958    521.98549 
 4475000      4485000    309.38897   -33.438103   -251.97598   -245.19523   -308.21173 0.00073383153 0.00065987094 0.00058435803    517.07148 
 4480000      4490000     295.9443    412.61778    574.48282    234.91672   -126.45395 0.00073286603 0.00065914375 0.00058690687    512.15651 
 4485000      4495000     300.2284    224.69968   -199.86385   -263.68504   -427.60648 0.00073246587 0.00065872529 0.0005867704    507.24165 
 4490000      4500000    292.95593    170.94533   -136.27045   -813.99986   -415.99061 0.00073133386 0.00065824676 0.00058559364    502.32679 
 4495000      4505000    303.34419   -228.19409   -114.43565    478.98277    473.13182 0.00073120982 0.00065801916 0.00058565372    497.41109 
 4500000      4510000    304.47226    234.56778   -203.33443    -505.0358   -96.294472 0.00072978542 0.00065707654 0.00058866561    492.49502 
 4505000      4515000    297.21714    127.65431    341.04949   -50.976739   -122.32798 0.00073032535 0.00065683967 0.00058866085    487.57926 
 4510000      4520000    301.46937   -30.471348   0.41240101     96.92007    400.23133 0.00072918945 0.00065690761 0.00059150117    482.66331 
 4515000      4525000    296.91001    320.83732    -43.87733    207.56682    828.55597 0.00072970579 0.00066265785 0.00059454531    477.74635 
 4520000      4530000    298.60546    154.19183   -156.94927    293.54088   -250.07189 0.00073501541 0.00066074632 0.00059832003    472.83018 
 4525000      4535000    295.75805    60.073681   -193.26462   -186.89955    303.38169 0.00073890213 0.00066070041 0.00059685453     467.9159 
 4530000      4540000    301.44819    220.08091    113.79803   -174.10453   -424.09521 0.0007387257 0.00066025365 0.00059761219    462.99941 
 4535000      4545000    299.61374    183.11709    26.522162    -44.48626    50.785316 0.00073698022 0.00065975553 0.00059674064    458.08299 
 4540000      4550000    294.19471    358.56079    -143.2147   -385.25315   -305.80044 0.00073694223 0.00065949752 0.00059649908    453.16631 
 4545000      4555000    294.63677   -342.91312    -195.9107    332.56127   -119.20556 0.0007394567 0.00065859442 0.00059611128    448.24915 
 4550000      4560000    302.17306   -89.069257    174.99943   -95.220425   -36.683022 0.00074271614 0.00065791555 0.00059566826    443.33204 
 4555000      4565000    294.01799   -75.409242    -218.5169     85.39574   -213.55998 0.00074406979 0.00065819556 0.00059480395    438.41506 
 4560000      4570000    300.99499   -427.70387   -502.67463    74.194063    367.22973 0.0007480807 0.00065654245 0.00059569107    433.49694 
 4565000      4575000    301.30792   -31.468046   -90.462589   -354.32735    139.08885 0.00074757281 0.00065571655 0.00059681609    428.57901 
 4570000      4580000    300.79906    -100.5356    6.0294487   -159.00675    94.947062 0.00074698677  0.000657832 0.00059676474    423.66051 
 4575000      4585000    297.15661    698.34025    25.608438    91.682657   -359.36425 0.00074638045 0.00065838683 0.00059874374    418.74291 
 4580000      4590000    301.56561   -217.63935   -202.62258    91.968988    37.156592 0.00074652105 0.00065882045 0.00059772937    413.82393 
 4585000      4595000     302.1448    139.42146    65.259323   -15.193462   -134.36441 0.00075016142 0.00065937459 0.00059813521    408.90615 
 4590000      4600000    300.73595    155.91215      -25.997   -125.49687   -401.75553 0.00075284083 0.00065889963 0.00059841763    403.98682 
 4595000      4605000    293.07234    -260.4964    430.50293     920.4285   -170.87883 0.00075052845 0.00065787279 0.00059741835    399.06784 
 4600000      4610000    294.78113    552.29788   -99.012865    251.82205   -671.17141 0.00074949669 0.00065670249 0.00059806181    394.14918 
 4605000      4615000    303.41083    -316.3646    67.248008    393.42193   -545.48302 0.00075181298 0.0006572253 0.00059852878    389.22962 
 4610000      4620000     296.4925    309.85325   -376.56248   -512.89412    -114.9716 0.00075308119 0.00065690714 0.00059756061    384.30924 
 4615000      4625000     298.0637    9.9061149   -246.62502    -28.48425    577.83201 0.00075210947 0.00065628644 0.00059897803    379.38968 
 4620000      4630000    302.26736    719.91318    90.738727   -327.77252   -454.51575 0.00075144982 0.00065580149 0.00059965393    374.46877 
 4625000      4635000    303.65105    71.360516    144.69793   -177.12063   -177.47996 0.00075468199 0.00065495239 0.00059930945    369.54873 
 4630000      4640000    302.74358    101.49699    104.87255   -272.28885   -130.06444 0.00075893208 0.0006545927 0.00060460016    364.62842 
 4635000      4645000     303.9121   -42.243089     206.8404   -49.501305   -25.803601 0.00075668319 0.00065405854 0.00060195217    359.70741 
 4640000      4650000    296.21473    533.87098    95.711978   -420.54062    119.94116 0.00075581114 0.00065342984 0.0006014943    354.78609 
 4645000      4655000    294.46155    227.77433    220.50907     -345.558   -22.997966 0.00075519876 0.00065325793 0.00060061443    349.86492 
 4650000      4660000    303.44908    344.24856    51.858744   -216.44244    164.72554 0.00075466263 0.0006526091 0.00060133681    344.94401 
 4655000      4665000     301.2337    122.12365   -44.995053    100.29102     124.6785 0.00075345335 0.0006519351 0.00060098659    340.02129 
 4660000      4670000    300.18191   -67.064703    437.36407   -61.569429    439.59585 0.00075341784 0.00065094216 0.0006061868    335.09915 
 4665000      4675000    292.05565   -729.42121    220.15672    273.46818    495.89651 0.00075239676 0.0006506315 0.00060507637    330.17771 
 4670000      4680000     294.6606    741.12348   -447.93309    248.35121   -82.665905 0.00075254696 0.00065379792 0.00060431647    325.25564 
 4675000      4685000    303.27521    576.33527    -389.5635    480.43134    -233.8993 0.00075171614 0.00065220276 0.00060675032    320.33326 
 4680000      4690000     302.8542     258.9169    12.339374    9.3006035    135.03485 0.00075112907 0.00065269923 0.00060593011    315.41023 
 4685000      4695000    294.81451    117.68928   -230.31062   -14.063472   -244.34594 0.00075044629 0.00065272244 0.00060559699    310.48713 
 4690000      4700000    297.88122    40.224286    127.64939     -167.741    367.51755 0.00075008959 0.00065252763 0.00060460946    305.56385 
 4695000      4705000    301.33884    44.222187    -186.6336   -106.36002   -513.15757 0.00075157895 0.00065187681 0.00060431947    300.64035 
 4700000      4710000    295.22487   -254.93563    6.8615964    7.3563622    141.83721 0.00075070705 0.00065194983 0.00060367607    295.71611 
 4705000      4715000     300.0821   -20.646393   -252.63608    117.36642   -92.822301 0.00074993529 0.00065166104 0.00060262198    290.79283 
 4710000      4720000      298.304   -350.46395   -199.40278    6.5828887    312.76962 0.00074974815 0.00065075479 0.00060182204    285.86912 
 4715000      4725000    306.65267    206.63003   -58.945524   -284.21002   -106.81665 0.00075073892 0.00065097743 0.0006015226    280.94542 
 4720000      4730000    294.60147    173.84168   -270.93933    380.00361    132.30945 0.00075169752 0.00065438047 0.00060194057    276.02106 
 4725000      4735000    297.26452    151.32453   -158.72994    125.58538    167.16076 0.00075099472 0.00065664545 0.00060178089    271.09636 
 4730000      4740000    301.69129   -23.736869    287.28821    362.12133   -194.81898 0.00075182024 0.00065539514 0.00060134752    266.17217 
 4735000      4745000    296.93045    634.45544    51.114082    219.42064   -126.22606 0.00075096836 0.00065471995 0.00060199231    261.24771 
 4740000      4750000    300.89194    382.17658    99.416764   -75.291073    144.49416 0.00075181965 0.00065268772 0.00060162182    256.32302 
 4745000      4755000    288.83174     271.0583   -70.026654     137.3644    127.00007 0.00075458045 0.00065222743 0.00060311304    251.39809 
 4750000      4760000    300.31999    66.816885   -109.74268     341.8545   -229.43648 0.00075689606 0.00065184843 0.0006034968    246.47294 
 4755000      4765000    298.12183    290.35898    -227.7305    263.54238    34.231073 0.00075925486 0.00065289588 0.00060375392    241.54762 
 4760000      4770000    296.47246    400.97141   -199.08157   -298.75934    320.18574 0.00075887948 0.00065180608 0.00060629613    236.62213 
 4765000      4775000    301.26687   -172.72533   -1030.5661   -261.25187    302.15571 0.00076061341 0.0006524017 0.00060566052    231.69714 
 4770000      4780000    297.51314   -58.945737    336.27033   -170.97905   -184.35012 0.00076079156 0.00065160521 0.0006049379    226.77142 
 4775000      4785000    299.69864   -29.809954   -343.02646    243.34207    266.33301 0.00076097737 0.0006505845 0.00060407868    221.84547 
 4780000      4790000    297.67681   -118.36834   -100.02631   -364.71884     112.9351 0.00076007366 0.0006499025 0.00060323869    216.91944 
 4785000      4795000    297.76954    263.58575    350.20284    123.09917    271.06409 0.00075943665 0.00065110973 0.00060307484    211.99337 
 4790000      4800000    302.77309   -50.873844    374.15571    68.063577     304.7995 0.00075939762 0.00065119451 0.00060233096    207.06692 
 4795000      4805000    292.91329    557.60786   -289.41659   -94.128349   -19.456946 0.00075921688 0.00065278325 0.00060302433    202.14046 
 4800000      4810000    303.32566      285.178   -238.71108   -142.41711   -92.967773 0.00076057676 0.00065211827 0.00060285913    197.21326 
 4805000      4815000    301.51606    280.06409    468.16791    262.94143    -134.6607 0.00075997601 0.00065115305 0.0006019785    192.28639 
 4810000      4820000    302.99508    314.24397   -327.83554   -158.70775    217.97499 0.00076013667  0.000650093 0.00060706249    187.35927 
 4815000      4825000    300.35908    -105.2278    -11.35868   -404.30951   -467.76778 0.00075901004 0.00064974652 0.00060746937    182.43158 
 4820000      4830000    301.00398    371.73028   -105.58553    261.10434    55.324974 0.00075848964 0.0006493191 0.00060799781    177.50375 
 4825000      4835000    298.16721    178.44223   -51.083094    308.24663    162.35153 0.00075711038 0.00064976662 0.0006073792    172.57611 
 4830000      4840000    302.35092    251.94401   -15.060301    16.829495    151.13807 0.00075615433 0.00064990967 0.0006079971     167.6483 
 4835000      4845000     302.2342    117.69451    317.99639   -97.525486   -80.856681 0.00075550131  0.000650096 0.00060715093    162.72025 
 4840000      4850000    297.54919   -324.73065   -480.42644    531.75772     5.044765 0.00075629549 0.00064943056 0.00060695714    157.79213 
 4845000      4855000    302.81974   -95.279044    432.81467   -240.43774     63.86067 0.00075623432 0.00064887412 0.00060586436    152.86378 
 4850000      4860000    300.63505    290.61504    100.03178   -435.20562   -126.26594 0.00075532061 0.00064787805 0.00060811802    147.93538 
 4855000      4865000    297.69112   -106.46896     304.4745    -274.5346   -17.483319 0.00075444718 0.00064830613 0.00060858166    143.00661 
 4860000      4870000    296.39767   -220.49181   -212.75192    323.89366    -56.20228 0.00075438586 0.00064829214 0.00061072821    138.07754 
 4865000      4875000     306.7511     292.4295   -67.967035    383.64098   -447.50159 0.00075381471 0.0006470623 0.00060972759    133.14829 
 4870000      4880000    306.81583    -16.87291   -333.29759    27.786362    292.95053 0.00075321343 0.00064628213 0.00060916681    128.21895 
 4875000      4885000    295.86955    176.76978    106.57352    947.77439   -678.53078 0.00075492513 0.00064592775 0.00060838037    123.28972 
 4880000      4890000     293.8185     67.57353    30.969037    18.422834    550.28669 0.00075285359 0.0006464615 0.00060784851    118.36007 
 4885000      4895000    298.78557    124.00035     63.85986   -161.17483    87.288431 0.00075471956 0.00064901831 0.00060725157    113.43043 
 4890000      4900000    296.36574    331.75389    311.21825   -609.42117    546.80353 0.00075579413 0.00064801479 0.00060712867     108.5003 
 4895000      4905000    300.55314    388.46303     512.4392   -25.655696    274.59198 0.00075727749 0.00064743631 0.00060807519    103.57022 
 4900000      4910000     295.1263    283.94115    369.15508    195.85174   -139.60431 0.00075605775 0.00064862209 0.00061296066    98.639688 
 4905000      4915000    300.44699    -66.79158    152.66324    149.14374   -23.815225 0.00075908928 0.00064888458 0.00061206941    93.709362 
 4910000      4920000    301.84401    -85.31495    122.84228    406.93114   -407.07245 0.00075859895 0.00064788779 0.00061200089    88.778778 
 4915000      4925000    293.26413    748.70854   -204.23394   -86.414773    40.109617 0.0007578443 0.00064705054 0.00061175212    83.848187 
 4920000      4930000    304.56066   -84.894524    408.99172    48.800379    493.49673 0.00075695448 0.00064644596 0.00061243319    78.917189 
 4925000      4935000    294.80609   -63.370377     238.0207   -89.916009    540.65707 0.00075736387 0.00064594251 0.00061389634    73.986362 
 4930000      4940000    306.76107   -165.02695    115.61064    4.9254063    326.52814 0.00075799065 0.00064532285 0.00061352725    69.054983 
 4935000      4945000    299.13011    474.72666   -86.395472    343.04062    38.552328 0.00075951969 0.00064417409 0.00061656633    64.123534 
 4940000      4950000    300.33156    241.59548     20.02959   -12.759985   -405.77887 0.00076054645 0.00064407569 0.00061557912    59.191891 
 4945000      4955000    305.61857    96.995176   -5.8580283   -499.55138   -503.83031 0.00076031915 0.00064316088 0.00061459422     54.26018 
 4950000      4960000    302.06386    747.75084   -130.39286    537.68195    311.27899 0.00076042172 0.00064288834 0.00061397639    49.328234 
 4955000      4965000    300.97431     -25.8722   -569.45731    582.18156    -193.8289 0.00076100557 0.00064282551 0.00061336296    44.396118 
 4960000      4970000    294.41246   -3.8565106    412.98267   -151.06388   -68.504002 0.00076048676 0.00064201571 0.0006137457    39.463859 
 4965000      4975000    299.43401   -59.347284    155.01984    66.188828    68.214659 0.00076163229 0.00064316139 0.00061631681    34.531393 
 4970000      4980000    303.30445    505.91576    146.58951    387.04549   -5.4747583 0.00076090941 0.00064382214 0.00061394082    29.598814 
 4975000      4985000    299.37892     88.12487    -103.2823    131.61372    426.56598 0.00076024972 0.00064518095 0.00061363025    24.666112 
 4980000      4990000    295.96856   -28.572765     219.9246      50.3181    228.60402 0.0007598044 0.00064772046 0.00061322443    19.733211 
 4985000      4995000    297.68549    544.91711    106.67141   -181.88043    54.039143 0.00075967077 0.00064626897 0.00061401775    14.800129 
 4990000      5000000    307.90514    38.628698   -309.70949   -438.80808   -188.32464 0.0007587457 0.00064670645 0.00061308119    9.8669007 
 4995000      5005000    300.90653    378.04977   -288.14602    272.78269    129.76976 0.00075716842 0.00064776417 0.00061413424    4.9335206 
 5000000      5010000    297.08043   -45.586751     336.8542   -379.21814   -145.76299 0.00075659081 0.00065164464 0.00061256886            0 
Loop time of 4933.6 on 2 procs for 5000000 steps with 5184 atoms

Performance: 87.563 ns/day, 0.274 hours/ns, 1013.459 timesteps/s
84.4% CPU use with 2 MPI tasks x 1 OpenMP threads

MPI task timing breakdown:
Section |  min time  |  avg time  |  max time  |%varavg| %total
---------------------------------------------------------------
Pair    | 921.14     | 959.32     | 997.5      | 123.3 | 19.44
Bond    | 1.4739     | 1.7543     | 2.0347     |  21.2 |  0.04
Kspace  | 1523.3     | 1541.5     | 1559.7     |  46.4 | 31.24
Neigh   | 7.177      | 7.4301     | 7.6832     |   9.3 |  0.15
Comm    | 814.3      | 814.65     | 815        |   1.2 | 16.51
Output  | 0.10461    | 3.6068     | 7.1091     | 184.4 |  0.07
Modify  | 1417.3     | 1441.6     | 1466       |  64.2 | 29.22
Other   |            | 163.7      |            |       |  3.32

Nlocal:        2592.00 ave        2599 max        2585 min
Histogram: 1 0 0 0 0 0 0 0 0 1
Nghost:        17235.0 ave       17261 max       17209 min
Histogram: 1 0 0 0 0 0 0 0 0 1
Neighs:         0.00000 ave           0 max           0 min
Histogram: 2 0 0 0 0 0 0 0 0 0

Total # of neighbors = 0
Ave neighs/atom = 0.0000000
Ave special neighs/atom = 2.0000000
Neighbor list builds = 243132
Dangerous builds = 0
variable     v equal (v_v11+v_v22+v_v33)/3.0
variable     ndens equal count(all)/vol
print        "average viscosity: $v [Pa.s] @ $T K, ${ndens} /A^3"
average viscosity: 0.000673601434956748 [Pa.s] @ 300 K, 0.0999767285178532 /A^3








Total wall time: 1:22:25
