LAMMPS data file via write_data, version 29 Oct 2020, timestep = 500000

5184 atoms
2 atom types
3456 bonds
1 bond types
1728 angles
1 angle types

2.1051585417544585 39.394841458249175 xlo xhi
2.1051585417544585 39.394841458249175 ylo yhi
2.1051585417544585 39.394841458249175 zlo zhi

Masses

1 15.9994
2 1.008

Pair Coeffs # lj/cut/coul/long

1 0.1553 3.166
2 0 0

Bond Coeffs # harmonic

1 600 1

Angle Coeffs # harmonic

1 75 109.47

Atoms # full

99 33 2 0.4238 4.462620832189302 6.601511370828719 5.3705390132480035 0 0 1
2736 912 2 0.4238 8.795818331723996 5.091262201535819 4.3570249751373495 1 1 1
519 173 2 0.4238 7.914804346945676 2.658833449735865 4.669244163304084 0 2 1
2653 885 1 -0.8476 3.6895928321276403 8.065827312637936 2.8987390397431865 1 0 1
257 86 2 0.4238 10.070398563625039 8.278513589811608 5.491595425911222 1 1 1
517 173 1 -0.8476 7.1309076854696025 3.219734364054104 4.935509140356478 0 2 1
4409 1470 2 0.4238 10.552475279215873 4.299243674359567 5.519331524677123 -1 0 0
98 33 2 0.4238 5.1658491179414785 7.382409498304374 4.120620977091028 0 0 1
2654 885 2 0.4238 4.3011038593936775 7.359337763261634 2.542469318644633 1 0 1
518 173 2 0.4238 6.302744684620054 2.860996767546495 4.504864569588062 0 2 1
1059 353 2 0.4238 2.4670685223927475 4.504566723458814 3.693014121361969 1 1 -1
345 115 2 0.4238 6.656499610048809 6.364965693890112 6.0296654273780765 1 1 0
2734 912 1 -0.8476 9.311248793164639 5.374507119130056 5.1657947098330546 1 1 1
1031 344 2 0.4238 11.101823405721156 2.12336769646733 2.9464408350412503 -1 0 1
97 33 1 -0.8476 5.329288958616028 6.787483522310444 4.907609785731219 0 0 1
271 91 1 -0.8476 4.2792074469804655 2.9982383716083634 4.6769048563964155 0 0 0
2735 912 2 0.4238 9.670501855744574 6.297192781138782 5.025820276897944 1 1 1
4929 1643 2 0.4238 11.0542271101646 4.806272850910099 3.2132781616736783 1 1 1
344 115 2 0.4238 8.143848279214259 5.778192534351736 6.361505365093738 1 1 0
2915 972 2 0.4238 11.22046633669211 7.219511922514048 3.5608955002596043 2 0 1
256 86 1 -0.8476 9.755069339744587 8.098367777145471 4.559866581710652 1 1 1
273 91 2 0.4238 4.158874974652815 2.1995422143397483 4.087324598013716 0 0 0
4410 1470 2 0.4238 11.199415136367739 2.926458863689469 6.122288813321796 -1 0 0
4634 1545 2 0.4238 7.336213010743287 4.477011781671469 3.4078266807804267 1 2 0
4927 1643 1 -0.8476 10.590620243234877 4.251269092978752 2.522596642516039 1 1 1
4928 1643 2 0.4238 9.656865152809678 4.586558527595363 2.397354050144016 1 1 1
3244 1082 1 -0.8476 2.939047971789269 5.918127822255841 5.905027452452753 1 1 0
4633 1545 1 -0.8476 7.9551766519274 4.929086595362876 2.7655531306144465 1 2 0
3246 1082 2 0.4238 2.771010101248304 4.9609607163800575 6.1408132320277495 1 1 0
343 115 1 -0.8476 7.422440276655639 6.397313866823395 6.671762704298859 1 1 0
272 91 2 0.4238 4.0301165030001584 2.7601220827357387 5.615656455434823 0 0 0
3375 1125 2 0.4238 6.868863805303141 2.926318209508179 6.710519677358753 0 1 1
4408 1470 1 -0.8476 11.375618059297988 3.7326952634187123 5.557543752448046 -1 0 0
3849 1283 2 0.4238 2.2782563347841993 3.265544127868252 8.599869742968558 1 0 0
546 182 2 0.4238 9.654570965672098 3.829791967467669 9.41988752230249 0 0 -1
4395 1465 2 0.4238 7.834072806556482 5.647251596974951 9.48330396320501 -1 0 1
544 182 1 -0.8476 8.880482611196568 4.0780007393373285 8.837495492448317 0 0 -1
4393 1465 1 -0.8476 7.49792439682251 6.52799605094879 9.81691216164643 -1 0 1
2698 900 1 -0.8476 3.1837878974375022 2.8353283475672897 9.998800919777356 0 -1 0
4101 1367 2 0.4238 3.933705299910895 6.3717760457247845 7.498953646695089 0 1 1
4099 1367 1 -0.8476 4.344122764202513 6.6650802578400725 8.362395894451351 0 1 1
4513 1505 1 -0.8476 3.85406176237674 8.068711002355753 10.694353234560195 0 1 1
545 182 2 0.4238 9.078076559768196 3.818832031827215 7.892091339545147 0 0 -1
777 259 2 0.4238 8.14433876465502 7.892781301204709 10.680281076466008 -1 1 0
4514 1505 2 0.4238 4.019215551491702 7.769757210191612 9.754485655407354 0 1 1
2699 900 2 0.4238 3.803407510460749 3.371350048050836 10.572170653581162 0 -1 0
4394 1465 2 0.4238 7.20714301676473 7.089029527972364 9.04187142384546 -1 0 1
4677 1559 2 0.4238 7.684698928479763 8.117448281064483 7.045066282995985 1 1 0
4100 1367 2 0.4238 4.342655083207746 5.901758922981886 9.008414069100715 0 1 1
1337 446 2 0.4238 7.739211098361976 5.602527533478972 11.278087342418553 -1 0 -1
4524 1508 2 0.4238 6.438494473832449 2.195320977636854 9.0376190614353 1 0 1
2904 968 2 0.4238 2.9755082855982096 2.4271006376487563 7.23366280816236 1 1 1
19 7 1 -0.8476 10.622812712906539 8.143006589903226 7.15521334337589 0 -1 1
3492 1164 2 0.4238 5.744228067847852 3.074171548321179 10.853635124051234 1 0 0
3373 1125 1 -0.8476 6.295554898684266 2.420480630667493 7.355070473831405 0 1 1
20 7 2 0.4238 10.685783367127737 7.360555596214518 7.774733807645822 0 -1 1
3847 1283 1 -0.8476 2.1802890935243804 3.805260982250622 7.763742413526438 1 0 0
455 152 2 0.4238 11.14021365555821 4.386553461259568 10.65769107184721 1 0 0
2123 708 2 0.4238 5.396239199423326 6.547392754303853 14.537280659289097 1 2 0
1749 583 2 0.4238 11.253501478949094 7.96448530486006 13.407160193592274 0 0 0
3207 1069 2 0.4238 10.111229147741872 2.7036950290021986 15.73278964749939 0 0 0
2124 708 2 0.4238 5.60655139240346 7.618423079502824 13.32266576011671 1 2 0
1336 446 1 -0.8476 7.609204571753615 5.219757710850058 12.192738192087893 -1 0 -1
3589 1197 1 -0.8476 10.934450604960162 3.863549179042202 14.533156045253756 1 0 0
569 190 2 0.4238 9.152359976063137 8.179278677307332 14.91785715352342 2 1 -1
3593 1198 2 0.4238 10.627119108029161 4.4984036946730335 13.089419066187796 1 0 0
1338 446 2 0.4238 6.880911277753139 5.718721368426144 12.662445441971569 -1 0 -1
3592 1198 1 -0.8476 10.391890753341267 4.8088083580653995 12.168377482379398 1 0 0
3491 1164 2 0.4238 5.899580667778685 4.448053031985155 11.722509885461722 1 0 0
1826 609 2 0.4238 3.8510178543724503 2.368103455201952 15.64126284560202 0 1 0
570 190 2 0.4238 7.665369668528709 7.54735693983896 14.680873132540512 2 1 -1
1108 370 1 -0.8476 7.637830530700593 2.7107181951468124 14.075639883137812 2 1 0
3590 1197 2 0.4238 11.092136277857469 4.542173125924812 15.250516250429383 1 0 0
2122 708 1 -0.8476 5.760584854126085 6.674510678537749 13.614733242843053 1 2 0
3073 1025 1 -0.8476 4.8827717604926075 3.47290794084447 14.762646138416954 1 -1 1
3074 1025 2 0.4238 5.774834510836524 3.066841583822727 14.564308999097937 1 -1 1
3594 1198 2 0.4238 9.398410240943923 4.888849652988371 12.087195005132397 1 0 0
3075 1025 2 0.4238 4.425366880835072 3.707809412390032 13.904972710380694 1 -1 1
568 190 1 -0.8476 8.59353064176377 7.353961510689758 14.99886022257993 2 1 -1
4963 1655 1 -0.8476 10.878909325158778 7.460916870619098 11.867384531862166 0 0 0
2451 817 2 0.4238 2.8311525819384884 6.13206801709511 15.310238856033266 1 1 0
1109 370 2 0.4238 8.198771822859618 2.157129095857548 14.691175624612546 2 1 0
4964 1655 2 0.4238 10.8528943202188 6.462199355957223 11.823927189636052 0 0 0
1110 370 2 0.4238 8.068794943985825 3.6034799897401104 13.944313888897765 2 1 0
3490 1164 1 -0.8476 5.265373115374082 3.7289951245679465 11.438365483094145 1 0 0
4965 1655 2 0.4238 9.949309833987407 7.8220731013358 11.79381364690304 0 0 0
5111 1704 2 0.4238 4.989998591891865 6.136945053763434 19.798281964690307 1 1 0
2799 933 2 0.4238 7.568535061380468 5.320200655186462 17.32063321084216 1 0 0
4792 1598 1 -0.8476 7.455486718524726 2.339807144393833 17.630881354388745 1 0 1
2067 689 2 0.4238 9.364750824827464 5.115121023199696 18.910255518790184 0 1 0
2798 933 2 0.4238 8.557761774917903 6.439219757906748 16.66043996775401 1 0 0
1827 609 2 0.4238 2.7798200302311944 2.4011609574841883 16.87336232221136 0 1 0
1296 432 2 0.4238 5.530127092690177 4.071502579067419 18.835534880144124 0 2 0
5112 1704 2 0.4238 4.056364470157811 7.445275269260647 19.509791310004797 1 1 0
2797 933 1 -0.8476 8.474501412547115 5.740546071967868 17.37102190652967 1 0 0
2066 689 2 0.4238 9.119929281341788 3.770507192023114 19.80395785971833 0 1 0
3749 1250 2 0.4238 4.17883164075898 7.3861500005252525 16.61609540314723 1 0 0
4257 1419 2 0.4238 5.509532826190739 4.25735872313008 16.27136725542781 0 1 1
4256 1419 2 0.4238 6.596820419693588 3.614475227323188 17.306323383366045 0 1 1
5003 1668 2 0.4238 11.328411811011698 6.27085948399263 16.77952972501894 0 0 0
1294 432 1 -0.8476 4.955925830467093 4.233630501709678 19.638036170174747 0 2 0
2250 750 2 0.4238 3.3692111399665703 3.529692848582796 19.03727402055383 0 0 -1
1295 432 2 0.4238 4.920324217687956 3.4041777020075252 20.195478213249274 0 2 0
2065 689 1 -0.8476 9.51927430741066 4.687303559727917 19.80081619195761 0 1 0
5110 1704 1 -0.8476 4.924682042343821 7.130308928699159 19.89296500725577 1 1 0
2609 870 2 0.4238 11.384380563715307 6.757414259104645 18.904877519194173 0 0 0
4793 1598 2 0.4238 8.261184146740414 2.2757120094978163 17.042031599261787 1 0 1
2248 750 1 -0.8476 2.7157904514355047 2.9998453580296105 18.496622639229667 0 0 -1
3750 1250 2 0.4238 5.2564453334694505 6.168821784948632 16.769354388240068 1 0 0
4232 1411 2 0.4238 6.385090128734537 8.257812101246069 19.56976308029838 0 1 -1
4255 1419 1 -0.8476 6.148850089775002 4.459162572455625 17.01335760646103 0 1 1
3206 1069 2 0.4238 10.328324785248627 2.320880701509014 17.30535111635326 0 0 0
3748 1250 1 -0.8476 4.616438529891313 6.619169478573689 16.146795584809873 1 0 0
145 49 1 -0.8476 8.814141108595969 5.47387174231786 24.890216743197293 1 0 -1
4026 1342 2 0.4238 5.3515144716533944 7.490314989165577 21.584670576124964 0 0 0
4693 1565 1 -0.8476 2.3497602909585957 7.04289972914978 24.461326170102286 0 1 1
147 49 2 0.4238 8.805314279062076 5.409201115727357 23.892348753372403 1 0 -1
1147 383 1 -0.8476 6.519833677810994 2.6154556387229357 22.502460756068324 1 1 0
4024 1342 1 -0.8476 5.726804480752101 7.251126417659986 22.48018649627449 0 0 0
1122 374 2 0.4238 6.984164593459837 5.09929107344128 24.455999361691582 0 0 -1
3893 1298 2 0.4238 9.245063970533305 5.307197279669885 21.45387819725394 1 0 0
1121 374 2 0.4238 6.387248706949017 4.0882499912421695 23.321046905397296 0 0 -1
1120 374 1 -0.8476 6.212498318982438 4.921717524851922 23.845261959410806 0 0 -1
3892 1298 1 -0.8476 8.907790141830905 5.7751292716167875 22.270754218071502 1 0 0
4025 1342 2 0.4238 5.656122832260821 6.263212191822201 22.618140613763405 0 0 0
3510 1170 2 0.4238 9.578920088135447 3.891024498883428 25.291298155105707 0 0 1
3894 1298 2 0.4238 8.13232592897609 6.356884804626482 22.025364784319837 1 0 0
1149 383 2 0.4238 5.777279694128194 2.272352271908782 21.92722572640407 1 1 0
4694 1565 2 0.4238 2.414886623838801 6.224861484450401 23.889860120925086 0 1 1
146 49 2 0.4238 8.926727068152319 6.429823552603782 25.161291431878645 1 0 -1
3828 1276 2 0.4238 2.687579748898864 7.756458905076586 23.03414022302631 1 1 0
2189 730 2 0.4238 9.96264431124214 7.310593120225032 23.306608010300877 1 0 0
2188 730 1 -0.8476 10.768168050333582 7.900965650544309 23.35752576424844 1 0 0
107 36 2 0.4238 2.4864487724766646 4.007049566693306 22.06720789759278 0 1 0
2057 686 2 0.4238 3.451704780937392 8.082748343282649 25.296867545116157 0 1 -1
106 36 1 -0.8476 2.177786473609747 4.907600672589951 22.37337148311092 0 1 0
2406 802 2 0.4238 2.3895690042825617 4.060197949372996 23.989851644782224 0 0 -1
200 67 2 0.4238 7.75161136017465 8.250707204359832 24.884963595630417 0 -1 -1
199 67 1 -0.8476 8.43019104287884 8.022578014478164 25.583166415569096 0 -1 -1
3509 1170 2 0.4238 11.149415314834657 3.5401582478454805 25.568904969004087 0 0 1
2944 982 1 -0.8476 5.272551660855288 5.233738354456333 26.533157041745543 0 2 0
2652 884 2 0.4238 9.436210588985077 3.5247264824974365 27.18390344903709 1 0 -1
682 228 1 -0.8476 11.300534229441663 4.3223644731599435 29.83635488005045 1 0 1
4285 1429 1 -0.8476 6.627576652632486 4.088040128688894 28.656499648009543 0 0 -1
4348 1450 1 -0.8476 8.867609481583134 7.597909738982213 29.16946996041891 1 0 1
4350 1450 2 0.4238 8.555116148485888 7.526302393086236 28.222251932451048 1 0 1
2651 884 2 0.4238 8.430276960069193 3.5011127269819347 28.470049602605798 1 0 -1
2650 884 1 -0.8476 9.380563777220914 3.4021758226525747 28.174807377761095 1 0 -1
4287 1429 2 0.4238 6.379316838691427 4.503109627105595 27.781236771121712 0 0 -1
2945 982 2 0.4238 5.35772084486839 5.973053059896937 25.86520457548651 0 2 0
2455 819 1 -0.8476 2.467526166839216 4.802882245547741 27.192076468121957 0 1 -1
4286 1429 2 0.4238 6.45567071252364 4.739824517243392 29.39516456270674 0 0 -1
3211 1071 1 -0.8476 4.537828515004875 7.47295881928858 29.208049414552978 1 -1 0
3390 1130 2 0.4238 5.962404123680136 3.2005979196782812 26.434368311073175 0 1 0
3508 1170 1 -0.8476 10.206392054435996 3.255473807943371 25.74114130813283 0 0 1
3797 1266 2 0.4238 2.8468176458519023 7.281632868242664 28.68877716714074 0 1 1
3388 1130 1 -0.8476 5.739895255062118 2.242781715397523 26.25249394480158 0 1 0
2946 982 2 0.4238 4.330078854372019 4.899572913647948 26.54212378791275 0 2 0
684 228 2 0.4238 10.60727353881201 3.834126938802241 29.30624097969842 1 0 1
4349 1450 2 0.4238 8.2337367506026 7.107491662143343 29.767548127845256 1 0 1
3837 1279 2 0.4238 5.88731185836117 2.658994169549117 29.483921044857638 0 1 -1
1090 364 1 -0.8476 2.589118132991004 2.8473584772910305 29.365012250631384 0 1 -1
3213 1071 2 0.4238 5.084493771560587 6.922798841226747 29.839303631451852 1 -1 0
2457 819 2 0.4238 2.5302049449982325 5.764821952662384 27.458055244318615 0 1 -1
1091 364 2 0.4238 3.5522706500070855 2.578470381732963 29.371099393014262 0 1 -1
1092 364 2 0.4238 2.471864797243535 3.679235120296791 29.90744678141801 0 1 -1
393 131 2 0.4238 6.567225775041516 3.1398677149971723 33.800982652361064 1 2 0
1735 579 1 -0.8476 2.4904121460538144 6.911893654104726 33.162017638435614 0 0 1
3095 1032 2 0.4238 9.443861852655019 5.369477842222445 32.53867270768832 2 0 0
3351 1117 2 0.4238 4.3773793573636555 7.382855086928618 32.84407064615372 0 0 0
392 131 2 0.4238 5.22571350538452 3.9826850584704783 33.40521693641937 1 2 0
3575 1192 2 0.4238 3.3567914301347845 4.808991402981595 31.946772723414703 0 -1 0
391 131 1 -0.8476 5.854694506677143 3.7502162644081474 34.14706752220781 1 2 0
3349 1117 1 -0.8476 5.376787733431918 7.415098390087969 32.85622647221473 0 0 0
2586 862 2 0.4238 8.475307981920212 3.076719197745086 33.53910440791659 1 1 0
2982 994 2 0.4238 10.607933877910785 3.5390498042059844 34.73215061493972 1 2 0
1500 500 2 0.4238 6.273524751887439 6.665318207793625 31.524145954341325 -1 -1 -1
1546 516 1 -0.8476 10.598765901378915 6.983068851661799 33.6132850286415 1 0 -1
3350 1117 2 0.4238 5.7098457243579075 7.094671466874979 33.74302086378627 0 0 0
1243 415 1 -0.8476 10.731774648140807 8.195312238016895 31.055089371277543 0 1 -1
1547 516 2 0.4238 10.059544378489312 7.537918930778394 34.24683341440591 1 0 -1
3094 1032 1 -0.8476 9.185036898250493 4.960994792024956 31.66337140114059 2 0 0
1737 579 2 0.4238 2.1840097521838366 6.566419762182983 34.04901628103283 0 0 1
4202 1401 2 0.4238 3.9060936213134245 4.988983191031289 34.51892466722576 0 0 -1
3096 1032 2 0.4238 10.00844977663886 4.761959471220872 31.13197841929268 2 0 0
2452 818 1 -0.8476 2.1173699449546715 2.1758034442184395 33.2587430537591 1 0 0
1548 516 2 0.4238 10.842788584642841 7.532191764419799 32.81396071376711 1 0 -1
3574 1192 1 -0.8476 3.7644271444360333 4.29571105212389 32.702006039186074 0 -1 0
1498 500 1 -0.8476 6.8213907830849925 6.331672392563389 30.7569930777414 -1 -1 -1
1499 500 2 0.4238 7.6088234625198075 5.823504726284367 31.105870912579476 -1 -1 -1
1245 415 2 0.4238 10.210928830173287 7.857597068333116 30.271081417052244 0 1 -1
3576 1192 2 0.4238 3.1611456569609007 3.539344070364423 32.954912143780966 0 -1 0
2584 862 1 -0.8476 7.921264622375764 2.28684095846816 33.27617067380423 1 1 0
1515 505 2 0.4238 6.418583086191351 5.568534458877009 34.53725633556552 0 0 -1
1572 524 2 0.4238 6.271797390975217 3.2328251970774438 35.997180110807356 0 0 -1
2275 759 1 -0.8476 8.27645583721996 8.054016753594189 38.192748376222966 0 1 0
283 95 1 -0.8476 10.728285454961037 7.317492620790782 37.83485518422398 1 1 -1
1514 505 2 0.4238 7.562380607994157 6.652553731348719 34.96534214207995 0 0 -1
4219 1407 1 -0.8476 9.113347718415126 2.755203435963697 37.35770113911769 0 2 1
957 319 2 0.4238 5.12916951820506 5.994334547730307 38.66254201151703 0 0 0
2276 759 2 0.4238 7.902323310693032 7.497768879696176 38.934782565573286 0 1 0
1571 524 2 0.4238 7.270613553857248 2.948237052443983 37.25734015574423 0 0 -1
4203 1401 2 0.4238 3.818722039366374 4.234590428260324 35.96456795030439 0 0 -1
4220 1407 2 0.4238 9.733950255777742 3.0722951032615846 38.074852163177276 0 2 1
285 95 2 0.4238 11.111119414973786 7.123824863463851 38.73814477679038 1 1 -1
2181 727 2 0.4238 5.895883703526809 7.768889200319836 36.21503054782355 0 0 -1
3022 1008 1 -0.8476 3.789489301367105 2.950472292315571 38.01592906129746 0 2 0
3024 1008 2 0.4238 4.7151681298203165 2.9789367191871077 37.63868906826944 0 2 0
1570 524 1 -0.8476 6.320179373980069 2.9247148019790843 36.94730068170035 0 0 -1
955 319 1 -0.8476 5.916143556344967 6.568372579056945 38.436368208945154 0 0 0
1102 368 1 -0.8476 3.490257926615364 5.479519004932263 39.136131554180494 0 0 -1
1892 631 2 0.4238 8.781428507009995 8.016190932870797 36.3255357693906 1 -1 -1
4201 1401 1 -0.8476 3.4158137304247846 4.946570112739054 35.38945845043577 0 0 -1
284 95 2 0.4238 9.731863488076144 7.24150883460657 37.87187085071329 1 1 -1
2981 994 2 0.4238 9.274737394111188 3.6954425699481828 35.66207285765929 1 2 0
956 319 2 0.4238 5.606299754894104 7.3763046517136175 37.935126681840416 0 0 0
1513 505 1 -0.8476 6.5966654908835425 6.407597996990878 35.05131897656226 0 0 -1
3023 1008 2 0.4238 3.800335083292338 2.4636528493558485 38.88936490022561 0 2 0
1104 368 2 0.4238 3.3060106832985245 4.61965884959029 38.66000678729594 0 0 -1
1891 631 1 -0.8476 8.822749580975696 8.231296620296078 35.34981856133657 1 -1 -1
4635 1545 2 0.4238 7.4463684855725845 5.203968008238374 39.239419180310364 1 2 -1
1103 368 2 0.4238 2.6724992244063674 6.05465440495988 39.113967544300735 0 0 -1
2980 994 1 -0.8476 9.661808639008411 3.8620306162670412 34.755195934223515 1 2 0
1640 547 2 0.4238 2.6221086897315864 11.60396650737418 6.056298555333252 1 1 1
4904 1635 2 0.4238 4.444698178686052 13.60989657182358 5.79648724649588 0 0 0
3966 1322 2 0.4238 7.014724929463524 13.3660558006903 6.023247948102873 1 0 2
2149 717 1 -0.8476 8.653275639536753 12.358454219420674 5.908465354729404 0 -1 0
28 10 1 -0.8476 5.490133456894263 11.632909351271218 3.69478880082797 0 0 0
242 81 2 0.4238 5.700394103982131 13.766224806866191 2.890743682552709 1 1 0
29 10 2 0.4238 4.657456393325137 11.976055685532721 4.129416093946608 0 0 0
1641 547 2 0.4238 2.436603924027795 10.12785866352092 6.729589611816838 1 1 1
2150 717 2 0.4238 9.174419434596377 13.12058577931206 5.524323256887511 0 -1 0
1019 340 2 0.4238 7.1228820336884935 10.693995933828454 4.130716297881376 -1 1 0
4905 1635 2 0.4238 2.9430171103981 13.619257385777185 5.15500914878772 0 0 0
847 283 1 -0.8476 10.567989670340017 13.974019206916157 5.035510446274867 1 1 0
4903 1635 1 -0.8476 3.639098970419664 13.052483615477392 5.5957350978425895 0 0 0
1020 340 2 0.4238 7.969361530273386 9.844790393369971 5.23929631960732 -1 1 0
4208 1403 2 0.4238 10.60116064758473 11.99834344868303 3.8128108497124718 1 0 1
3964 1322 1 -0.8476 6.168365209698109 13.48376289643506 6.542690446606052 1 0 2
258 86 2 0.4238 9.252074153966843 8.89252374516753 4.218816551557697 1 1 1
2151 717 2 0.4238 8.375696932336364 11.740259722665586 5.1730839783852725 0 -1 0
1018 340 1 -0.8476 7.930321680776955 10.123142660193295 4.27961059377092 -1 1 0
30 10 2 0.4238 5.245720800745237 11.049441590304571 2.9203012256416776 0 0 0
2655 885 2 0.4238 3.7354148587527596 8.873627918977462 2.3110648794192956 1 0 1
4207 1403 1 -0.8476 10.649136011028718 11.15624289664261 3.2756273714553035 1 0 1
1184 395 2 0.4238 2.2609913503050194 14.30171139894935 3.1117221444580636 1 0 -1
2286 762 2 0.4238 2.488427809558452 8.499872376874944 4.098879511418264 0 0 0
611 204 2 0.4238 8.949042708534046 10.6001831018179 2.315245811115325 1 0 -1
2618 873 2 0.4238 3.9071993911489726 8.337697111522914 7.8044693680852015 1 1 0
4543 1515 1 -0.8476 5.089098271033284 10.296665655455488 10.87822379844682 1 0 1
5147 1716 2 0.4238 2.2290629705492293 12.684187130684935 9.217635583797742 1 0 0
4018 1340 1 -0.8476 5.643821118463195 11.074504467125504 8.12205692750289 0 0 0
4020 1340 2 0.4238 5.998688994264584 11.574593310032373 8.911983385881442 0 0 0
102 34 2 0.4238 9.042925106347719 9.772093865094098 9.628001978408756 2 0 0
100 34 1 -0.8476 9.654706199953093 10.00463956001969 8.871927782983454 2 0 0
21 7 2 0.4238 10.468278173053518 8.976532305195498 7.685641828084735 0 -1 1
4544 1515 2 0.4238 6.022826835048264 10.65454897513745 10.86978523709061 1 0 1
119 40 2 0.4238 6.970965673384452 12.526687143744274 11.244378051429907 1 1 0
118 40 1 -0.8476 7.00968441940951 12.243068140300846 10.286220784476 1 1 0
2802 934 2 0.4238 9.388367357810266 14.165069981796483 10.709173947670116 1 0 0
101 34 2 0.4238 9.675599339177827 10.997361574040704 8.753319307402313 2 0 0
2617 873 1 -0.8476 3.71185327390317 9.257538651650199 7.464272829863988 1 1 0
4019 1340 2 0.4238 6.24798851966952 10.30474404646943 7.916011445174466 0 0 0
2619 873 2 0.4238 4.55497599712119 9.795164597864147 7.454038676768743 1 1 0
919 307 1 -0.8476 9.279313442090675 12.842416847610655 8.609173880965756 0 0 1
4545 1515 2 0.4238 4.461613975740706 10.994293022707772 10.532419970147865 1 0 1
921 307 2 0.4238 10.129689816838061 13.343718065647602 8.769051591925173 0 0 1
4676 1559 2 0.4238 8.34594278062728 9.442029791066277 7.734174265284465 1 1 0
4844 1615 2 0.4238 3.0188324187420794 10.484588941689678 8.781882082128734 -1 0 0
120 40 2 0.4238 7.858826420336665 12.574115538800964 9.874676677671713 1 1 0
4843 1615 1 -0.8476 2.5664321826670156 11.019676449373604 9.495336617231715 -1 0 0
775 259 1 -0.8476 8.340177271088363 8.77077684540818 11.11706005010872 -1 1 0
920 307 2 0.4238 9.123629850460203 12.755434088345993 7.625201173768414 0 0 1
4675 1559 1 -0.8476 7.536267214409223 9.079903329566863 7.272339713667069 1 1 0
4515 1505 2 0.4238 4.516185332872468 8.776646297987606 10.940159360980365 0 1 1
3965 1322 2 0.4238 5.971318854056264 12.646648880489154 7.052997425818489 1 0 2
4143 1381 2 0.4238 4.31984619352701 13.82051156714453 11.30881887527423 -1 0 1
2209 737 1 -0.8476 2.611256112532599 9.285525480016247 14.45323993520604 0 0 0
2384 795 2 0.4238 9.515554538938805 11.042646072779352 12.256977451206321 0 0 0
776 259 2 0.4238 7.662081304882707 8.946645423464826 11.83068348799492 -1 1 0
1760 587 2 0.4238 8.959899044448619 10.877610447271278 14.340872800320339 1 1 1
3617 1206 2 0.4238 5.487387928136114 13.948380694323914 15.509247934313098 1 1 1
1067 356 2 0.4238 3.5615269476165325 9.07467025299468 15.981455498513002 1 2 0
3616 1206 1 -0.8476 6.366095208352109 14.41460169506686 15.611774427203136 1 1 1
4496 1499 2 0.4238 5.599767386706305 10.053439600852132 13.231211377760253 0 -1 0
4495 1499 1 -0.8476 6.453903985886866 9.593565845987202 13.474043420291766 0 -1 0
791 264 2 0.4238 11.356715642914908 9.423531000293686 15.675709029821544 2 -1 0
484 162 1 -0.8476 2.5884233743738503 12.264929290181168 14.02521614140331 0 0 1
2385 795 2 0.4238 10.974428426688238 10.386704495042089 12.585694089277226 0 0 0
2138 713 2 0.4238 6.784860310591213 13.301591407532992 13.675629907674479 0 0 0
2137 713 1 -0.8476 6.530304303463523 13.484952269464333 12.72611403285409 0 0 0
4497 1499 2 0.4238 7.076856898485618 10.250259884193099 13.899116113272981 0 -1 0
2849 950 2 0.4238 3.3358535319634424 13.004135221531529 15.418945957611392 0 1 -1
1759 587 1 -0.8476 8.127305629076176 11.147071668404822 14.824793692672646 1 1 1
1761 587 2 0.4238 8.36637958834447 11.735227665332019 15.597397344062479 1 1 1
2210 737 2 0.4238 2.21331751687348 10.162336061154639 14.72314408916396 0 0 0
485 162 2 0.4238 3.309509755985544 12.552061159910435 13.39466868734076 0 0 1
2211 737 2 0.4238 2.2705669853774615 9.029208719950818 13.548677528517269 0 0 0
2383 795 1 -0.8476 10.136322619277246 10.756382761679784 12.986841073585003 0 0 0
2139 713 2 0.4238 5.554925322446086 13.700207578094917 12.678137142413075 0 0 0
3399 1133 2 0.4238 10.454876761634015 13.26457768931878 15.606684536739198 -1 1 1
2800 934 1 -0.8476 9.435747655941986 14.307796624620657 11.69780157883004 1 0 0
4141 1381 1 -0.8476 3.8211375519861104 13.84506864740139 12.175241310906197 -1 0 1
3089 1030 2 0.4238 11.284214475167678 14.477822127325554 13.431787147446663 2 0 1
425 142 2 0.4238 2.6379832346817165 8.542254395009602 11.508390490546349 1 0 0
27 9 2 0.4238 7.804705297490859 13.90323639307735 18.70528227709999 1 0 0
3397 1133 1 -0.8476 10.297131169112527 12.760403947768426 16.45576020663397 -1 1 1
1066 356 1 -0.8476 4.184599520329948 9.050622684916823 16.763252902594807 1 2 0
1590 530 2 0.4238 3.9977951562570624 14.18701832322299 17.84334846429702 1 0 0
2604 868 2 0.4238 10.0644107977814 9.050849400009362 19.00925512186697 1 0 0
2603 868 2 0.4238 8.467346688034734 9.120568996684675 18.675854804554696 1 0 0
4231 1411 1 -0.8476 6.897506033419939 9.112998123727081 19.491718871631363 0 1 -1
2602 868 1 -0.8476 9.384264823234227 9.095700149559656 18.27755114361351 1 0 0
153 51 2 0.4238 9.543552361809672 12.841919072071567 18.2851873542153 0 0 0
2776 926 1 -0.8476 5.433215732616493 11.567268722359023 19.724097436899996 1 1 0
2778 926 2 0.4238 5.793644297516398 11.641107332851151 18.79423578079189 1 1 0
1068 356 2 0.4238 3.6663864994410247 8.858707179924531 17.596694085468613 1 2 0
152 51 2 0.4238 8.992811321439898 11.428977389895449 18.89091566480866 0 0 0
792 264 2 0.4238 10.500859109559526 9.504952489474313 17.064057232742368 2 -1 0
2777 926 2 0.4238 5.4565769204564125 12.465534390940956 20.16293394615206 1 1 0
3618 1206 2 0.4238 6.682520440219855 14.325458922991498 16.55619438733379 1 1 1
1717 573 1 -0.8476 5.8139658669635335 11.27040978172131 16.983880172308837 1 -1 -1
151 51 1 -0.8476 9.081626320810658 12.410546418602785 19.06013509837469 0 0 0
2152 718 1 -0.8476 2.407015855353243 8.535905051646788 19.331976225202 0 1 0
1718 573 2 0.4238 5.126294884187874 10.544466538205748 16.973119323521125 1 -1 -1
790 264 1 -0.8476 11.195021370436326 9.958410865543478 16.505022581737606 2 -1 0
2848 950 1 -0.8476 3.874446603639451 13.130080334148696 16.252048304925843 0 1 -1
4233 1411 2 0.4238 6.296408131040624 9.882582150873121 19.70718500373624 0 1 -1
25 9 1 -0.8476 7.070294793420807 14.493991246179544 18.371140643772563 1 0 0
4482 1494 2 0.4238 2.9248395697409806 11.634033103000268 19.459801887464085 0 0 1
1719 573 2 0.4238 6.523232794289572 11.067688513674101 16.30871716525223 1 -1 -1
3398 1133 2 0.4238 10.794503106624248 11.893379018257832 16.425888749178558 -1 1 1
2850 950 2 0.4238 4.307112694381407 12.264245653988144 16.503310713146057 0 1 -1
3959 1320 2 0.4238 10.12300478772126 9.354772155449638 20.685625813686 2 0 0
3960 1320 2 0.4238 8.519505422195612 9.089171130675565 20.52790187533418 2 0 0
4481 1494 2 0.4238 2.312550688874934 10.158942953098157 19.119450567521316 0 0 1
2153 718 2 0.4238 2.337468299121144 8.520244252016093 20.32943201181145 0 1 0
3462 1154 2 0.4238 3.771127954349485 13.689647612325196 21.168141588807604 -1 -1 0
3827 1276 2 0.4238 3.383420363932444 9.087012501035481 22.39222102310395 1 1 0
4340 1447 2 0.4238 2.2342761475008515 13.20219847190217 22.932286808629726 1 0 0
1197 399 2 0.4238 4.67867718149554 11.141887924771998 21.267117642164646 0 1 -1
4691 1564 2 0.4238 6.09674489300336 10.30665385054189 23.380360645037545 0 1 0
2010 670 2 0.4238 9.01485660483802 10.98826034184644 21.690385934106576 0 0 0
4341 1447 2 0.4238 2.433272056651914 11.960810562051478 23.974392122111006 1 0 0
1196 399 2 0.4238 4.073766572700015 11.608298143354943 22.71043761455052 0 1 -1
1202 401 2 0.4238 8.831301423302037 12.95747753804051 24.8530377596568 0 1 -1
2495 832 2 0.4238 9.901297805482036 14.417964406216507 23.26191813186838 0 0 -1
3958 1320 1 -0.8476 9.21440801099941 9.637783045061088 20.992805771042477 2 0 0
141 47 2 0.4238 6.365045999235863 13.781238328076865 24.023772148337866 2 0 0
2008 670 1 -0.8476 9.011055661036597 11.896584238517686 22.108638233860148 0 0 0
4690 1564 1 -0.8476 6.564032305372207 9.467427598415911 23.65846777317987 0 1 0
3460 1154 1 -0.8476 4.770755756447488 13.715187139358594 21.177804628505793 -1 -1 0
982 328 1 -0.8476 9.907786586440432 10.21853961583836 24.821898532479516 0 0 0
3038 1013 2 0.4238 3.621546683510112 13.077943324287437 24.91097664673079 0 1 0
1195 399 1 -0.8476 4.410287893965728 10.830993317849908 22.178881513729632 0 1 -1
2009 670 2 0.4238 8.321674522444614 12.466533892571238 21.66152368034028 0 0 0
984 328 2 0.4238 9.362494008269138 10.725177522711622 24.154084585101405 0 0 0
4692 1564 2 0.4238 6.15236756552993 8.685771117406967 23.189904152423143 0 1 0
503 168 2 0.4238 10.498074065190687 12.875791752310132 22.589207911758216 1 -1 -2
4339 1447 1 -0.8476 2.8986985032726627 12.696943811737075 23.482978291682276 1 0 0
3571 1191 1 -0.8476 6.398584169446974 12.229124995841604 24.987945275402765 1 0 0
3573 1191 2 0.4238 5.509386642907511 12.626912250252264 25.213984078973677 1 0 0
3826 1276 1 -0.8476 2.758980791238437 8.3262100189243 22.215429810794006 1 1 0
502 168 1 -0.8476 11.221085798432895 13.501445218074313 22.882145668071484 1 -1 -2
3461 1154 2 0.4238 5.091177094882956 13.871075249016586 22.112165974602387 -1 -1 0
2190 730 2 0.4238 10.488266968599396 8.82498899858621 23.617982225378274 1 0 0
1565 522 2 0.4238 2.327647603845639 10.237372016703791 25.094620465665823 0 1 0
1795 599 1 -0.8476 2.8879603186369827 10.138244708471253 27.999062515539656 2 0 0
1201 401 1 -0.8476 9.482139803690721 13.02295482384227 25.609425989521977 0 1 -1
637 213 1 -0.8476 7.48684379118324 11.651842238691696 27.536222582002726 1 1 0
5103 1701 2 0.4238 9.053935309176133 9.335950289861774 28.7743178896351 0 0 0